 TITLE = "Adapted Mesh"
 VARIABLES = "X", "Y"
 ZONE T = "Domain", N=       16314 E=       32034 
 DATAPACKING=POINT, ZONETYPE=FEQUADRILATERAL
  0.000000000000000E+000   3.25000000000000     
  0.000000000000000E+000   3.35065440820481     
  0.000000000000000E+000   3.45408305581161     
  0.000000000000000E+000   3.56048430903498     
  0.000000000000000E+000   3.67004194402138     
  0.000000000000000E+000   3.78292670606310     
  0.000000000000000E+000   3.89953802048711     
  0.000000000000000E+000   4.01989794031216     
  0.000000000000000E+000   4.14389246311028     
  0.000000000000000E+000   4.27166058920092     
  0.000000000000000E+000   4.40333268811658     
  0.000000000000000E+000   4.53903127661026     
  0.000000000000000E+000   4.67887170985512     
  0.000000000000000E+000   4.82296279176263     
  0.000000000000000E+000   4.97179232971223     
  0.000000000000000E+000   5.12524192692752     
  0.000000000000000E+000   5.28332193539893     
  0.000000000000000E+000   5.44611548428505     
  0.000000000000000E+000   5.61370321624037     
  0.000000000000000E+000   5.78710884280579     
  0.000000000000000E+000   5.96552295867081     
  0.000000000000000E+000   6.14923005357088     
  0.000000000000000E+000   6.33906363309202     
  0.000000000000000E+000   6.53417860009203     
  0.000000000000000E+000   6.73595100892125     
  0.000000000000000E+000   6.94345058505793     
  0.000000000000000E+000   7.15762147597203     
  0.000000000000000E+000   7.37837320587652     
  0.000000000000000E+000   7.60573693024928     
  0.000000000000000E+000   7.84013184831114     
  0.000000000000000E+000   8.08199652084417     
  0.000000000000000E+000   8.33123592048883     
  0.000000000000000E+000   8.58812135731189     
  0.000000000000000E+000   8.85290749800328     
  0.000000000000000E+000   9.12583385215647     
  0.000000000000000E+000   9.40712608682799     
  0.000000000000000E+000   9.69716995674931     
  0.000000000000000E+000   9.99629546742320     
  0.000000000000000E+000   10.3044834647838     
  0.000000000000000E+000   10.6221390235924     
  0.000000000000000E+000   10.9497464896789     
  0.000000000000000E+000   11.2873114095262     
  0.000000000000000E+000   11.6353110119263     
  0.000000000000000E+000   11.9941592780014     
  0.000000000000000E+000   12.3639812472497     
  0.000000000000000E+000   12.7451893719921     
  0.000000000000000E+000   13.1381705762379     
  0.000000000000000E+000   13.5432888877409     
  0.000000000000000E+000   13.9608868377879     
  0.000000000000000E+000   14.3912877775972     
  0.000000000000000E+000   14.8350577742103     
  0.000000000000000E+000   15.2925046077387     
  0.000000000000000E+000   15.7640383416259     
  0.000000000000000E+000   16.2500000000000     
  0.100000000000000        3.24999999535898     
  0.100000000000000        3.35065440356379     
  0.100000000000000        3.45408305117059     
  0.100000000000000        3.56048430439396     
  0.100000000000000        3.67004193938036     
  0.100000000000000        3.78292670142208     
  0.100000000000000        3.89953801584609     
  0.100000000000000        4.01989793567114     
  0.100000000000000        4.14389245846926     
  0.100000000000000        4.27166058455990     
  0.100000000000000        4.40333268347556     
  0.100000000000000        4.53903127196924     
  0.100000000000000        4.67887170521410     
  0.100000000000000        4.82296278712161     
  0.100000000000000        4.97179232507121     
  0.100000000000000        5.12524192228650     
  0.100000000000000        5.28332193075791     
  0.100000000000000        5.44611547964403     
  0.100000000000000        5.61370321159935     
  0.100000000000000        5.78710883816477     
  0.100000000000000        5.96552295402979     
  0.100000000000000        6.14923004892986     
  0.100000000000000        6.33906362845100     
  0.100000000000000        6.53417859545101     
  0.100000000000000        6.73595100428023     
  0.100000000000000        6.94345058041691     
  0.100000000000000        7.15762147133101     
  0.100000000000000        7.37837320123550     
  0.100000000000000        7.60573692560826     
  0.100000000000000        7.84013184367012     
  0.100000000000000        8.08199651620315     
  0.100000000000000        8.33123591584781     
  0.100000000000000        8.58812135267087     
  0.100000000000000        8.85290749336226     
  0.100000000000000        9.12583384751545     
  0.100000000000000        9.40712608218697     
  0.100000000000000        9.69716995210829     
  0.100000000000000        9.99629546278218     
  0.100000000000000        10.3044834601428     
  0.100000000000000        10.6221390189514     
  0.100000000000000        10.9497464850378     
  0.100000000000000        11.2873114048852     
  0.100000000000000        11.6353110072853     
  0.100000000000000        11.9941592733604     
  0.100000000000000        12.3639812426086     
  0.100000000000000        12.7451893673511     
  0.100000000000000        13.1381705715969     
  0.100000000000000        13.5432888830999     
  0.100000000000000        13.9608868331469     
  0.100000000000000        14.3912877729562     
  0.100000000000000        14.8350577695693     
  0.100000000000000        15.2925046030977     
  0.100000000000000        15.7640383369848     
  0.100000000000000        16.2499999860769     
   64.3598750040218       0.625966997630700     
  -7.88170334870621       0.219057460536442     
  -7.79914181577959        5.66244902249594     
   6.26509577162273        7.94588185471157     
   5.89795026270661        8.27040020196372     
   5.89091300470139        7.67795128639102     
   5.82274325701567        7.97434603686671     
   5.87821763051488        8.66128985489813     
   5.48188425742843        8.77619041264338     
   6.35892691081426        8.42770784240632     
   5.51468748506370        8.47087710198025     
   6.91614053715044        8.09731399990664     
   6.25533980323521        7.56078906120090     
   5.51387532452353        8.14744045825574     
   5.50041452911743        7.49398052001206     
   5.50930051702908        7.83432164153501     
   5.38687145470901        7.09684351277343     
   5.27276125681065        9.92083508111554     
   5.16157577907747        9.68170042188190     
   5.69035779970387        9.11117399196851     
   5.16474423456666        8.99404296314075     
   5.20069068174663        9.37047574931387     
   6.29616775226533        8.91725023855346     
   5.13453027336368        8.64910250002382     
   6.86756841740916        8.68153462752781     
   6.67649060361496        7.61978882845477     
   5.95505498886541        7.26311605471543     
   5.15416810101182        8.01248634759116     
   5.15115331939143        8.32506214357216     
   5.34139043325986        6.69511242697285     
   5.00612227409714        6.88761279297852     
   5.13919033811597        7.70163973503600     
   4.98175916186102        7.14754154856444     
   5.08682011086437        7.39139908258946     
   7.56433880350793        7.92613122794576     
   7.47387903798102        8.44675010081283     
   4.96160219622816        6.57812101913215     
   8.12571288205368        8.19067148958011     
   4.88915485077147        6.30607039592107     
   9.12982427060676        8.55214731784711     
   4.91063624297911        9.90378878946134     
   5.60181368193590        9.64666390692863     
   4.80925258792490        9.57633378709081     
   6.18695687464568        9.41923015858061     
   4.69977309717500        8.84276562003014     
   4.75937793843702        9.22173451175080     
   6.76955609370321        9.20993385709138     
   6.44986636170104        7.30484310401953     
   4.76939288209542        8.49057430352430     
   4.79211841102986        8.18235397405876     
   5.80431971999467        6.79938423233578     
   4.76480935147620        7.59193077724624     
   4.78987563446010        7.88445279733527     
   7.17100474856949        7.64356587027810     
   7.36191182918829        8.99966931291940     
   4.65481486780559        6.76058600386888     
   5.23751727609905        6.34965514645254     
   4.68237498794298        7.04410370446155     
   4.71879159771076        7.31388455872704     
   7.97534588537670        8.79714473028270     
   7.96523349451825        7.78093310186577     
   4.59382035202710        6.15426780198178     
   4.61431779433383        6.46603717723286     
   8.59613346605268        8.64227613594669     
   8.83388838500307        8.14495449619896     
   9.46581883752445        8.20670731685214     
   4.55475142669409        5.80357315259214     
   10.0125016334307        8.30069780922638     
   4.68145130873849        10.8194465742603     
   4.68650272050272        10.5104062903655     
   5.08801206668556        10.2666287763702     
   5.59230007657126        10.1143563707404     
   4.50043624052801        9.82648197766928     
   4.62282194705618        10.1618402675830     
   6.09453326928712        9.91670770927061     
   4.35538913523399        9.09169921000630     
   4.31030045741789        9.46525934335931     
   6.65221384084210        9.72099308740313     
   4.38956576645611        8.61479255662006     
   4.30669069177230        8.84478858087038     
   4.42751200544694        8.33290101268595     
   6.36064491198865        6.91338562622483     
   6.96234388713970        7.17614649598757     
   7.23183426661446        9.52966244600706     
   4.43767801517529        8.04890856067001     
   5.62184597082156        6.45909068759684     
   4.40301935978540        7.48872256789444     
   4.42802323144851        7.76691830936544     
   7.69662501991702        7.41008667537002     
   7.82849868603836        9.34421585690850     
   4.37109135114868        7.21365773358607     
   4.33871056107141        6.93493266714572     
   5.01610628280840        5.97722294635645     
   4.30260696405530        6.64638098818317     
   8.43671011801249        9.17300682076517     
   8.43523802896690        7.61022269083281     
   9.04212586433329        9.01111046405261     
   9.21265590686225        7.68214688541850     
   4.26161717562372        6.34388616399518     
   4.20952718109342        6.01877193520472     
   4.49935968540188        5.39713988462556     
   4.13196613684886        5.65724799771446     
   9.67542398355223        8.77165172514210     
   9.89217766911615        7.80325436236723     
   10.3898390683303        8.69193914361636     
   4.00516055110216        5.23077502102822     
   10.6016853955095        8.04442856830443     
   11.0605741287107        8.61315528180983     
   3.70132863048733        4.99985108547523     
   11.3865272590670        8.06795959017387     
   11.7099209057777        8.59928064424248     
   3.71375728333215        4.67815009501386     
   15.9168556357162        8.31647970569315     
   15.4116639889858        8.29271153273098     
   14.8164922714093        8.27955667247692     
   14.1854050377906        8.27670079714425     
   13.5178168763976        8.28535898118910     
   12.7621889313824        8.31557845959631     
   12.2431806014311        8.61496816139776     
   12.0625971838189        8.13001457468042     
   3.22110707554744        4.31261472429124     
   4.48436927495065        11.3683357757544     
   4.44371442088892        11.0349963573135     
   4.37540393675112        10.7169525617344     
   5.03253628773282        10.7114082693095     
   5.49352374012082        10.5530359052935     
   4.22997743007235        10.0795483783721     
   4.31655087780867        10.3967168479913     
   5.99651013398722        10.3897049528925     
   3.94746890665034        9.42243920144053     
   3.97554395627063        9.58957974751914     
   4.11206980974190        9.78593952537704     
   6.52839643305268        10.2163374600463     
   4.04563530123588        8.71857017179749     
   4.02975325307591        8.96491511801601     
   4.01362717100061        9.22198272830695     
   6.82931594706109        6.57206648701551     
   7.08986979660681        10.0421684306715     
   4.07355260890641        8.46454309760286     
   4.08721604800675        8.19766946463784     
   6.12706108762827        6.37308106394461     
   4.08568924954001        7.92693555667434     
   7.51376080479763        6.78009826189100     
   7.67262852723396        9.87140476720761     
   4.07150614108328        7.65535195602257     
   4.04820703345393        7.38329494646525     
   4.01919554371733        7.10862834351742     
   5.57076349357554        6.08123903923170     
   8.27112345118646        9.70763597621329     
   8.22462423389622        6.96578038570808     
   8.88029095921900        9.55125518565197     
   8.94762499452947        7.10977931333219     
   3.98489281655651        6.82764581183945     
   3.94280611292259        6.53667571811966     
   3.88796656659549        6.23160475073773     
   4.87131600072818        5.59864620446787     
   9.50312041221548        9.39314394097981     
   9.65998193770621        7.23057727027720     
   10.1502147784923        9.26218622238081     
   4.38975584240263        5.04597464735845     
   3.70073236720637        5.56415084942460     
   3.81151281861514        5.90761707470617     
   10.3599974181753        7.36738537292802     
   10.8043439283466        9.17486704274254     
   4.07973886958309        4.81231370931949     
   3.53798458652891        5.24170591740949     
   11.0733923461377        7.47898070588753     
   11.4395515323501        9.11426681820666     
   3.37445303766461        4.94210794881166     
   3.34966410730960        4.58897526241500     
   21.2184282798760        8.30351814810361     
   20.8122818167197        8.43899167831844     
   20.3144447226304        8.34603702458288     
   19.6499890491746        8.28441132588915     
   18.8807606978368        8.22801890970712     
   18.3408459064545        7.91066283020999     
   18.1872913204479        8.42133174767850     
   17.8059545944582        7.94220514914961     
   17.5496269109483        8.50151214860989     
   17.1632881991145        7.97328637219427     
   16.8981709304073        8.56913203424451     
   16.4242710640495        8.01630638144566     
   16.2810565738249        8.67649785605290     
   15.7526936749896        7.83541144410839     
   15.7124527463103        8.76549859941478     
   15.1362083626622        7.77275193125614     
   15.1332517609734        8.79140515544023     
   14.5244302564512        8.80783999379051     
   14.5050626663670        7.74141553388670     
   13.8920219198336        8.83067704632314     
   13.8510232356214        7.72138504634125     
   13.2396800239912        8.87396521877804     
   13.1661760654499        7.70067642517200     
   12.6190657570216        8.97341365880018     
   12.4692404858427        7.63906223970879     
   12.0403108532619        9.06766627984647     
   11.7793453006128        7.55283296333206     
   2.34393798358526        3.77900665433339     
   2.68207904405062        3.75772046373882     
   2.86096677501044        4.13046786670834     
   3.29285698445896        3.99770923918941     
   4.42767990896677        11.7056336549785     
   4.20003966340718        11.5230622107585     
   4.15696910382336        11.2472493698383     
   4.09555670628403        10.9332971282850     
   4.86826770614795        11.1319218198322     
   5.37602252517140        10.9944546134527     
   4.02832638328690        10.6174331576514     
   5.87385585366565        10.8481511960842     
   3.87007623443831        10.0141107472951     
   3.95497090262399        10.3073246122548     
   3.78168504247585        9.75693330355059     
   3.72164198348260        9.53435077521912     
   6.39377413254331        10.6958859123174     
   3.72088055450005        9.08430582664453     
   3.71100622462398        9.31736998687465     
   6.93887312520456        10.5398531464855     
   3.73774418025073        8.59062634321610     
   3.72833303289338        8.83922043405873     
   3.74556168876336        8.33602029183295     
   6.65641166682827        6.00323683549006     
   7.32475479146655        6.19668356115761     
   7.50715141627770        10.3843176712179     
   3.74557915345325        8.07585533490380     
   3.71980454293758        7.54655028100141     
   6.02109698798069        5.79037656687592     
   3.73668798611752        7.81239638709782     
   8.00845876670082        6.37111859520909     
   8.09409830842108        10.2329510189633     
   8.69534331785747        10.0883376458330     
   8.70598189304386        6.52441740059144     
   3.62777204775470        6.72482257256748     
   5.38430500419570        5.54146614506335     
   3.66610402208686        7.00464549923559     
   3.69619919162194        7.27783492883390     
   9.30838517272302        9.95157947328947     
   9.40531054448780        6.65617061220778     
   9.93294662048835        9.82893559181204     
   4.90798422769283        5.26129658643705     
   3.50827972558038        6.13608599540660     
   3.57725179400091        6.43603557266866     
   10.0995665982055        6.77516081986327     
   10.5643435195478        9.72980129973962     
   3.41308386456278        5.82462746790068     
   4.47063756601975        4.55480308449924     
   3.28656190513404        5.50866090603638     
   10.7920194826486        6.88193803264332     
   11.1911901779065        9.65370047778123     
   3.14270361141909        5.19464026961488     
   4.02351748811468        4.39365514075366     
   3.00588644045406        4.87746470067524     
   29.3595677926136        8.29987646731123     
   28.7755715214750        8.26890421309572     
   28.0915656484926        8.25142411433429     
   27.3716208155113        8.24678218163876     
   26.6183078116705        8.25532986147587     
   25.7803716057271        8.28653415115436     
   25.2012593351845        8.61782858987441     
   25.0385312558448        8.07235441947371     
   24.3599321095655        7.99746148407160     
   24.6425146498021        8.58483739814021     
   23.9880327723452        8.56437206128815     
   23.6704357860210        7.95983314775486     
   23.2996117576800        8.55466176602879     
   22.9643965784186        7.93530876333061     
   22.5807686442987        8.55305004244006     
   22.2403902710740        7.91033767175118     
   21.7874553308856        8.55706868732059     
   21.5354996053568        7.85434667583332     
   21.1425391694426        8.80482892444868     
   20.8130162587834        7.86752477821548     
   20.5713605104347        8.87753665481021     
   20.0787266288521        7.73424817892259     
   19.9589490317454        8.87709736903922     
   19.3771964612690        7.64608394936820     
   19.2867549681942        8.87716073701331     
   18.7180106263145        7.52738649467517     
   18.6015393363580        8.92983157363327     
   18.1082119131033        7.43435482242657     
   17.9411437182026        9.01591276145045     
   17.4827667856260        7.41205223112608     
   17.2981359934806        9.08781796416628     
   16.8158934037483        7.39921949540006     
   16.6692343039935        9.16122485154058     
   16.1397832421980        7.34629347034750     
   16.0622941114703        9.23382120928860     
   15.4862036597514        7.27099405036278     
   15.4666897123587        9.28697149416723     
   14.8437648121216        7.21993069726711     
   14.8645574892127        9.32174943414395     
   14.2501949106723        9.35364656294449     
   14.1941143221600        7.18175062545799     
   13.6269110699423        9.39410008837845     
   13.5297673741919        7.14607226034044     
   13.0077083316028        9.45343641270130     
   12.8523506112421        7.10089987984472     
   12.4037657253341        9.52540624354643     
   12.1698624349779        7.03996435400761     
   11.8038692034840        9.59108045271648     
   11.4835752471047        6.96828109093554     
   3.57223474860021        4.29352086594255     
   2.98822033210522        4.51335042097010     
   1.41905801595635        3.17093306700218     
   1.82257754285009        3.43999955270195     
   1.84951467151073        3.60657439368572     
   2.15938283698940        3.50369786627909     
   2.52080448081102        3.41958521742104     
   2.04665104099023        3.79296254165632     
   2.44549448346821        4.09560388978106     
   2.99946261089231        3.72102757017930     
   4.34261509004670        12.0063197826677     
   4.03214120336872        11.8219062346971     
   3.89786212736986        11.4741501373978     
   3.82020040464356        11.1549140497340     
   4.80861776318348        11.5706359884502     
   5.25076912024662        11.4291135121344     
   3.74972483278330        10.8372956884399     
   5.73766210120792        11.2977191231812     
   3.67921161313458        10.5254290667021     
   3.60685538548138        10.2256992876772     
   3.53534360355108        9.94591544518544     
   3.47525533390036        9.68924311531839     
   6.24678144940976        11.1629965062237     
   6.77896057455344        11.0244384584109     
   3.41650720750621        8.72008665160115     
   3.41797751352629        8.96638440722105     
   3.42293730662211        9.20908617174222     
   3.43824316757763        9.44786915461637     
   3.41596526035574        8.47073709948842     
   7.13261452198911        5.65240136924466     
   7.33360712911781        10.8845150347018     
   3.41313054939393        8.21778087313653     
   6.49138368674966        5.44413765259366     
   3.40553500183222        7.96142367434596     
   7.78661577268337        5.81168191211892     
   7.90810816639319        10.7466622488109     
   8.49869181591003        10.6141331641132     
   8.46572194248881        5.95719303750481     
   5.89066406683566        5.30746923942391     
   3.34826436362017        7.17440285386625     
   3.37338546027655        7.43995307486985     
   3.39233431756723        7.70213302905461     
   9.10159033832355        10.4896768176300     
   9.15071435727895        6.09425174436146     
   9.71360841427575        10.3765162662105     
   5.25770637051919        5.10831392621586     
   3.27185488672850        6.62945898458921     
   3.31545802751367        6.90460110320215     
   9.83171911174233        6.21151629236737     
   10.3310511928637        10.2786148112609     
   3.13076937136254        6.05908467557256     
   4.92783395350729        4.73729741219808     
   3.21249783877371        6.34787707833254     
   10.5094396678605        6.31278613794457     
   10.9484562035122        10.1975136973150     
   2.74871969812281        5.13702699597212     
   4.31525107591272        4.23213161121962     
   3.02018933920327        5.76285919281576     
   2.88208039617828        5.45671845642631     
   37.3929187864712        8.29979653044518     
   36.7578407419245        8.25841785108764     
   36.0086795527504        8.22605845482885     
   35.2061622402798        8.19611886561740     
   34.3057978600716        8.15229474986288     
   33.6844380520715        7.79471680807976     
   33.5023810395395        8.37993008454686     
   33.0760508175276        7.83192579424413     
   32.7705225509583        8.46312918842188     
   32.3630910126828        7.86021257596130     
   32.0282011425201        8.51186239609686     
   31.6126599507776        7.88355644015973     
   31.2704637701789        8.55474412565781     
   30.8277167012530        7.90927575450366     
   30.5000079697976        8.61190703677875     
   29.9550962464733        7.95218475297438     
   29.7762550207078        8.72565745871736     
   29.1763482224396        7.73647257214494     
   29.1143668087341        8.82245195584624     
   28.4666376742064        7.66293774537507     
   28.4448784296441        8.84747429876986     
   27.7455832510576        7.62789555419692     
   27.7452092220041        8.86236138087757     
   27.0235344679420        8.88447018683355     
   27.0058054883433        7.60731902924379     
   26.2861991604315        8.92826157107582     
   26.2427775129922        7.58681631680638     
   25.5909734190130        9.03173865858792     
   25.4852605377839        7.52154130292910     
   24.7626087378153        7.43401797165594     
   24.9550680795163        9.12162306898981     
   24.3135831308313        9.14280919014118     
   24.0581704407372        7.37696675802542     
   23.6434534588795        9.15326043829650     
   23.3529335982782        7.33723038419920     
   22.9516682901175        9.16798966153804     
   22.6422106094626        7.30322643116874     
   22.2416233957030        9.19817303428130     
   21.9312396103920        7.26514669303830     
   21.5526366214901        9.28001972094363     
   21.2208025456726        7.22829767409509     
   20.9124193426506        9.37575997657448     
   20.5084646163694        7.17217459590504     
   20.2862940892674        9.42556176040587     
   19.8058705740839        7.09277481049720     
   19.6428619709678        9.45386151034464     
   19.1259141951324        7.01150131969563     
   18.9836686031416        9.49060044912985     
   18.4710852986243        6.93409183684077     
   18.3262198840716        9.54612017950021     
   17.8268943331870        6.87934656307666     
   17.6802534591334        9.60913324030533     
   17.1734419456946        6.84353151233201     
   17.0464614252026        9.67118382149402     
   16.5099944141598        6.80413070189440     
   16.4254534641412        9.73149287243855     
   15.8489582442182        6.75271364750304     
   15.8151987276268        9.78528775373394     
   15.1956186405282        6.70011513146103     
   15.2086518206947        9.82929121452240     
   14.5440457635157        6.65339196616737     
   14.5997046815763        9.86746092990649     
   13.9873256835691        9.90698994250787     
   13.8859673966015        6.60833759908485     
   13.3751844022874        9.95383904609917     
   13.2172527362297        6.56294821880414     
   12.7680854331656        10.0092610939114     
   12.5413545772502        6.51691797135125     
   12.1653391087976        10.0687391195835     
   11.8639745211574        6.46411523258980     
   11.5603723130547        10.1298571869758     
   11.1865818361231        6.39719582607527     
   3.87186742147845        4.01984693656999     
   2.62609375178377        4.81138810746593     
   2.59853080845455        4.43073047353357     
   1.20300559714024        3.14533552314031     
   1.29282468709439        3.05181359523573     
   1.70560567222401        3.12230089349303     
   1.58274547577046        3.37773469918392     
   1.98845779219251        3.19863076816295     
   2.28960105727487        3.22008262526190     
   1.78432270388227        3.82648175788390     
   2.89921560925357        3.41817774275738     
   4.04078319040749        12.2670108101732     
   3.67002095787421        12.3530945107496     
   3.68528678543148        12.0595795878388     
   3.62937650863112        11.7162923639342     
   3.54845041304439        11.3837619763156     
   4.69654061199802        11.9436261471436     
   5.12315908926122        11.8464366134248     
   3.47437309065120        11.0600007680359     
   5.59153290651038        11.7356116895707     
   3.40400577162356        10.7428185623195     
   3.33574922720681        10.4353182731198     
   3.27055535397756        10.1417233029570     
   6.08938152295754        11.6189647479837     
   6.61041856231683        11.4974374232155     
   3.11784960240158        9.10226961152980     
   3.13634373081051        9.35067031972790     
   3.16688235722778        9.60291455044943     
   3.21242618747116        9.86475767329287     
   3.10642711100563        8.85456976355091     
   3.09839220204576        8.60634145124982     
   7.15302144782706        11.3731534633308     
   3.09109650219864        8.35672164272587     
   6.97986994375141        5.15987500881177     
   7.55561883286448        5.30578278475200     
   7.71540496815459        11.2491647064989     
   8.22355276803896        5.39310135529017     
   8.29468794415907        11.1287814094725     
   3.08232430873905        8.10504836856283     
   6.40231994912589        4.89905299246695     
   3.05473195793569        7.59469518537466     
   3.07052960909539        7.85105749008767     
   8.88722063426088        11.0150633896984     
   8.90905127886690        5.55003847869199     
   9.48916881028852        10.9107196704386     
   5.79572746050110        4.77067171211504     
   2.97072303055252        6.81062980990040     
   3.00682848947461        7.07461752829630     
   3.03399194952159        7.33591760012284     
   9.57473052278903        5.66985079688754     
   10.0967339611908        10.8180765567877     
   5.25406021040680        4.55370166713565     
   2.92172682383971        6.54379018138316     
   10.2315417935468        5.77040710390866     
   10.7060582305055        10.7383136395205     
   4.77662294600025        4.37054961349229     
   2.75971976854856        6.00088621515252     
   2.85408861472632        6.27400682294446     
   48.2534751152399        8.06964964725741     
   47.5644158622156        8.11063321380388     
   46.7605364012784        8.13952260092205     
   45.9208998957339        8.16031093382347     
   45.0585261457271        8.17929807656575     
   44.1649675126280        8.20380288059406     
   43.1767948602876        8.25002425219238     
   42.5027174373805        8.64470930724762     
   42.2996621547554        8.00438634568185     
   41.8454823547783        8.60972008338978     
   41.5022229827655        7.92409806445626     
   41.0784878128721        8.59211284375642     