 TITLE = "Edge Error"
 VARIABLES = "X", "Y","Estimate1" 
 ZONE T = "Domain", I=       37459  DATAPACKING=POINT, ZONETYPE=ORDERED
  2.975881290000000E-002   3.25085240000000        62574.8354017519     
  2.389730610000000E-002   3.27529636000000        73143.5068802327     
  5.365611900000000E-002   3.27614876000000        43107.1369512489     
  7.047043935000000E-002   3.25162479000000        18873.2791368455     
  6.731498164999999E-002   3.26365363500000        24467.9595137122     
  7.826779520000000E-002   3.26357362500000        21428.1697919051     
  8.446162644999999E-002   3.25077239000000        5506.23152521106     
  8.446162644999999E-002   3.25706329000000        10854.9273257150     
  8.749999999999999E-002   3.25629090000000        11049.1290227560     
  9.375000000000000E-002   3.25000000000000        11021.1555158347     
  0.100000000000000        3.25629090000000        11093.2779575303     
  9.375000000000000E-002   3.26258180000000        10808.5846323015     
  8.749999999999999E-002   3.26887270000000        10719.9038927618     
  0.100000000000000        3.26887270000000        10879.3160101353     
  9.375000000000000E-002   3.27516360000000        9724.64513889821     
  8.130616874999999E-002   3.26909213500000        15312.4264992400     
  8.130616874999999E-002   3.27538303500000        9643.29591764972     
  8.130616874999999E-002   3.28167393500000        13264.9128924015     
  8.749999999999999E-002   3.28145450000000        9788.28321668714     
  0.100000000000000        3.28145450000000        9698.60394832894     
  9.375000000000000E-002   3.28774540000000        7441.51664791737     
  8.749999999999999E-002   3.29403630000000        7490.21393286132     
  0.100000000000000        3.29403630000000        7297.64415902151     
  9.375000000000000E-002   3.30032720000000        5909.60783815226     
  8.124999999999999E-002   3.29403630000000        10558.3840989643     
  8.124999999999999E-002   3.30032720000000        5621.23639416375     
  7.505616875000000E-002   3.28796483500000        18907.1378361015     
  6.145347485000000E-002   3.28809759500000        28312.1048548277     
  6.139730610000000E-002   3.30045996000000        15940.2927355347     
  6.139730610000000E-002   3.31304176000000        21607.1620401552     
  7.500000000000000E-002   3.31290900000000        11181.2454932008     
  8.749999999999999E-002   3.30661810000000        5658.02176512714     
  8.124999999999999E-002   3.31919990000000        5989.71921635257     
  0.100000000000000        3.30661810000000        5948.28031184512     
  9.375000000000000E-002   3.31290900000000        5172.32590879976     
  0.100000000000000        3.31919990000000        5206.17360954693     
  8.749999999999999E-002   3.32549080000000        7176.07860683237     
  7.500000000000000E-002   3.33807260000000        7223.03886523546     
  0.100000000000000        3.33807260000000        6342.03361585796     
  8.749999999999999E-002   3.35065440000000        5865.14108001543     
  6.250000000000000E-002   3.33807260500000        15974.2878472223     
  6.250000000000000E-002   3.35065440500000        11258.6267051338     
  4.889730610000000E-002   3.32562356500000        29359.4019588006     
  2.389730610000000E-002   3.32562356500000        40551.8815178057     
  2.500000000000000E-002   3.35065441000000        22517.2534102659     
  0.000000000000000E+000   3.30032720500000        105781.284897088     
  2.500000000000000E-002   3.37651157000000        20674.7359607392     
  5.000000000000000E-002   3.37651157000000        23289.2889675916     
  7.500000000000000E-002   3.36358298500000        6066.23799919772     
  6.250000000000000E-002   3.38944015000000        7227.73567049015     
  0.100000000000000        3.36358298500000        4901.07660309810     
  8.749999999999999E-002   3.37651157000000        4423.21379086010     
  0.100000000000000        3.38944015000000        4574.86986817908     
  7.500000000000001E-002   3.40236873000000        10047.8578822560     
  5.000000000000000E-002   3.42822589000000        10392.3627567501     
  0.100000000000000        3.42822589000000        3460.17535364416     
  7.500000000000001E-002   3.45408305000000        1646.17271454316     
  2.500000000000000E-002   3.42822589500000        14455.4727857064     
  2.500000000000000E-002   3.45408305500000        6981.39168421867     
  0.000000000000000E+000   3.40236873500000        29727.0662034517     
  0.000000000000000E+000   3.50728368500000        14856.5760388092     
  5.000000000000000E-002   3.48068336500000        1751.54851005013     
  2.500000000000000E-002   3.53388399500000        766.724743318662     
  0.100000000000000        3.48068336500000        1220.50789865187     
  7.500000000000001E-002   3.50728368000000        872.201917259446     
  0.100000000000000        3.53388399000000        928.033655267827     
  5.000000000000000E-002   3.56048430500000        455.440671778061     
  0.000000000000000E+000   3.61526312500000        498.970006056120     
  0.100000000000000        3.61526312000000        278.539464869388     
  5.000000000000000E-002   3.67004194000000        307.152130435899     
  0.000000000000000E+000   3.72648432500000        346.727975992664     
  0.100000000000000        3.72648432000000        192.920761086809     
  5.000000000000000E-002   3.78292670500000        154.574945022138     
  0.000000000000000E+000   3.84123236500000        236.070116820048     
  0.100000000000000        3.84123236000000        137.652632381084     
  5.000000000000000E-002   3.89953802000000        202.441870192563     
  0.000000000000000E+000   3.95971798000000        243.658873010273     
  0.100000000000000        3.95971798000000        163.527513376822     
  5.000000000000000E-002   4.01989794000000        194.003941872109     
  0.000000000000000E+000   4.08189520000000        240.554256505401     
  0.100000000000000        4.08189520000000        186.461687486362     
  5.000000000000000E-002   4.14389246000000        153.422251181812     
  0.000000000000000E+000   4.20777652500000        196.024741338903     
  0.100000000000000        4.20777652000000        192.136388464264     
  5.000000000000000E-002   4.27166058500000        132.439165707220     
  0.000000000000000E+000   4.33749664000000        161.174706969364     
  0.100000000000000        4.33749663000000        174.385430709176     
  5.000000000000000E-002   4.40333268500000        111.367735764684     
  0.000000000000000E+000   4.47118198500000        144.516272644250     
  0.100000000000000        4.47118197500000        151.124447147600     
  5.000000000000000E-002   4.53903127500000        94.9176876984365     
  0.000000000000000E+000   4.60895149500000        130.535357141840     
  0.100000000000000        4.60895149000000        132.733312115319     
  5.000000000000000E-002   4.67887171000000        83.7679496671535     
  0.000000000000000E+000   4.75091725000000        120.702143369258     
  0.100000000000000        4.75091725000000        118.990925291846     
  5.000000000000000E-002   4.82296279000000        75.7938754040695     
  0.000000000000000E+000   4.89737756000000        112.803676112050     
  0.100000000000000        4.89737756000000        109.737485618234     
  5.000000000000000E-002   4.97179233000000        69.0092004615864     
  0.000000000000000E+000   5.04851713000000        105.894342071502     
  0.100000000000000        5.04851712500000        104.096956267715     
  5.000000000000000E-002   5.12524192500000        63.4174189912969     
  0.000000000000000E+000   5.20428193500000        100.250262283184     
  0.100000000000000        5.20428192500000        98.9565007163044     
  5.000000000000000E-002   5.28332193500000        58.5317584197547     
  0.000000000000000E+000   5.36471871000000        95.2859215557657     
  0.100000000000000        5.36471870500000        94.0507535894265     
  5.000000000000000E-002   5.44611548000000        53.8783441747361     
  0.000000000000000E+000   5.52990935000000        90.2934993518620     
  0.100000000000000        5.52990934500000        89.0948573986516     
  5.000000000000000E-002   5.61370321500000        49.2184050044068     
  0.000000000000000E+000   5.70040603000000        85.3474803520024     
  0.100000000000000        5.70040602500000        84.2879224377757     
  5.000000000000000E-002   5.78710884000000        44.5805000403211     
  0.000000000000000E+000   5.87631590000000        79.5379068385386     
  0.100000000000000        5.87631589500000        78.6172248809127     
  5.000000000000000E-002   5.96552295500000        40.0572116957364     
  0.000000000000000E+000   6.05737650500000        73.5879379413765     
  0.100000000000000        6.05737650000000        72.7990395718653     
  5.000000000000000E-002   6.14923005000000        35.6554440438494     
  0.000000000000000E+000   6.24414684000000        67.6860058933362     
  0.100000000000000        6.24414684000000        67.1483336797992     
  5.000000000000000E-002   6.33906363000000        31.6305777315611     
  0.000000000000000E+000   6.43662111500000        61.7159922517620     
  0.100000000000000        6.43662111500000        61.2966205606730     
  5.000000000000000E-002   6.53417860000000        27.8777093692748     
  0.000000000000000E+000   6.63506480500000        56.2495260471815     
  0.100000000000000        6.63506480000000        55.8322986524600     
  5.000000000000000E-002   6.73595100500000        24.3770366922511     
  0.000000000000000E+000   6.83970080000000        50.5822487528668     
  0.100000000000000        6.83970079000000        50.2294477573014     
  5.000000000000000E-002   6.94345058500000        21.2281144265556     
  0.000000000000000E+000   7.05053603500000        45.4644415975723     
  0.100000000000000        7.05053602500000        45.1812594884805     
  5.000000000000000E-002   7.15762147500000        18.4176272286488     
  0.000000000000000E+000   7.26799734500000        40.6572307321930     
  0.100000000000000        7.26799733500000        40.4453014191622     
  5.000000000000000E-002   7.37837320500000        15.9380992981556     
  0.000000000000000E+000   7.49205507000000        36.2374554615801     
  0.100000000000000        7.49205506500000        36.0858010464353     
  5.000000000000000E-002   7.60573693000000        13.7874993890300     
  0.000000000000000E+000   7.72293439000000        32.3171981629174     
  0.100000000000000        7.72293438500000        32.2267799074653     
  5.000000000000000E-002   7.84013184500000        11.9625254080941     
  0.000000000000000E+000   7.96106418500000        28.9331226019529     
  0.100000000000000        7.96106418000000        28.8766391312458     
  5.000000000000000E-002   8.08199652000000        10.4211420221852     
  0.000000000000000E+000   8.20661622000000        25.9735918492420     
  0.100000000000000        8.20661622000000        25.9251092748636     
  5.000000000000000E-002   8.33123592000000        9.11126771883366     
  0.000000000000000E+000   8.45967864000000        23.4055201691039     
  0.100000000000000        8.45967863500000        23.3589291845760     
  5.000000000000000E-002   8.58812135500000        7.99251482006634     
  0.000000000000000E+000   8.72051443000000        21.1630714809815     
  0.100000000000000        8.72051442000000        21.1314640242566     
  5.000000000000000E-002   8.85290749500000        7.02354496714965     
  0.000000000000000E+000   8.98937067500000        19.1691049194501     
  0.100000000000000        8.98937067000000        19.1451148487491     
  5.000000000000000E-002   9.12583385000000        6.16632306792806     
  0.000000000000000E+000   9.26647997000000        17.3453882834116     
  0.100000000000000        9.26647996500000        17.3080216176942     
  5.000000000000000E-002   9.40712608500000        5.40996862995360     
  0.000000000000000E+000   9.55214802500000        15.6912823801033     
  0.100000000000000        9.55214801500000        15.6438714545447     
  5.000000000000000E-002   9.69716995500000        4.75226643039881     
  0.000000000000000E+000   9.84673271500000        14.2152411964891     
  0.100000000000000        9.84673270500000        14.1727553932326     
  5.000000000000000E-002   9.99629546500000        4.19105345891022     
  0.000000000000000E+000   10.1503894850000        12.9163250912622     
  0.100000000000000        10.1503894800000        12.8827806511139     
  5.000000000000000E-002   10.3044835000000        3.71592669722616     
  0.000000000000000E+000   10.4633112500000        11.8038455297073     
  0.100000000000000        10.4633112500000        11.7740659958036     
  5.000000000000000E-002   10.6221390000000        3.31131995206244     
  0.000000000000000E+000   10.7859427500000        10.8162302114913     
  0.100000000000000        10.7859427500000        10.8481325119529     
  5.000000000000000E-002   10.9497465000000        2.96622243069994     
  0.000000000000000E+000   11.1185289500000        9.99718430627809     
  0.100000000000000        11.1185289500000        10.0129257819698     
  5.000000000000000E-002   11.2873114000000        2.68221034895893     
  0.000000000000000E+000   11.4613112000000        9.33408128553566     
  0.100000000000000        11.4613112000000        9.19495157586690     
  5.000000000000000E-002   11.6353110000000        2.39993846467636     
  0.000000000000000E+000   11.8147351500000        8.61213838153721     
  0.100000000000000        11.8147351500000        8.45863170238677     
  5.000000000000000E-002   11.9941593000000        2.13876428858327     
  0.000000000000000E+000   12.1790702500000        7.90961872856013     
  0.100000000000000        12.1790702500000        7.84578907396330     
  5.000000000000000E-002   12.3639812000000        1.92629521336574     
  0.000000000000000E+000   12.5545853000000        7.34319530955769     
  0.100000000000000        12.5545853000000        7.28752827274016     
  5.000000000000000E-002   12.7451894000000        1.74643111220827     
  0.000000000000000E+000   12.9416800000000        6.86314594192944     
  0.100000000000000        12.9416800000000        6.75694344695910     
  5.000000000000000E-002   13.1381706000000        1.58039181459096     
  0.000000000000000E+000   13.3407297500000        6.40245645261003     
  0.100000000000000        13.3407297500000        6.27691624615243     
  5.000000000000000E-002   13.5432889000000        1.43054720188497     
  0.000000000000000E+000   13.7520878500000        5.97393507358039     
  0.100000000000000        13.7520878500000        5.82024299083476     
  5.000000000000000E-002   13.9608868000000        1.28758721696457     
  0.000000000000000E+000   14.1760873000000        5.54178825768770     
  0.100000000000000        14.1760873000000        5.39503116480985     
  5.000000000000000E-002   14.3912878000000        1.15591831905353     
  0.000000000000000E+000   14.6131728000000        5.12961872446385     
  0.100000000000000        14.6131728000000        5.00104274366476     
  5.000000000000000E-002   14.8350578000000        1.04866630373441     
  0.000000000000000E+000   15.0637812000000        4.79709044911135     
  0.100000000000000        15.0637812000000        4.66357678174680     
  5.000000000000000E-002   15.2925046000000       0.848990956677432     
  0.000000000000000E+000   15.5282714500000        4.40248611082860     
  0.100000000000000        15.5282714500000        3.94820096523941     
  5.000000000000000E-002   15.7640383000000       0.933652485671458     
  0.000000000000000E+000   16.0070191500000        8.10976124730229     
  0.100000000000000        16.0070191500000        3.92992959001449     
  5.000000000000000E-002   16.2500000000000        1.66880666671927     
  -7.99083095500000       0.109538509000000        804.780783284142     
  -8.10000000000000       0.250000000000000        1300.97275296484     
  -7.99083095500000       0.359538509000000        874.385046989972     
  -7.89386679000000       0.622275021500000        1331.84981187577     
  -8.10000000000000       0.750000000000000        1502.90034688978     
  -7.89386679000000       0.872275021500000        1457.79251757291     
  -7.88093274500000        1.11783786000000        1957.71527267497     
  -8.10000000000000        1.25000000000000        1953.84453245217     
  -7.88093274500000        1.36783786000000        2013.56962557037     
  -7.88388050500000        1.62123958500000        2255.70849641135     
  -8.10000000000000        1.75000000000000        2311.86991848540     
  -7.88388050500000        1.87123958500000        2326.37772220260     
  -8.10000000000000        2.25000000000000        2446.75042759560     
  -7.88387959000000        2.37196522500000        2573.76907548280     
  -7.88387959000000        2.12196522500000        2542.63506832814     
  -7.88210157000000        2.87425071500000        2677.08305246065     
  -7.88210157000000        2.62425071500000        2669.14817911481     
  -8.10000000000000        2.75000000000000        2468.59785667757     
  -7.87944911500000        3.38034084000000        2598.83999763386     
  -7.87944911500000        3.13034084000000        2653.38110949198     
  -8.10000000000000        3.25000000000000        2468.59785667757     
  -7.87972141000000        3.89044240000000        2303.93128936302     
  -7.87972141000000        3.64044240000000        2495.79621459197     
  -8.10000000000000        3.75000000000000        2388.40638130828     
  -7.88835266500000        4.39962472000000        1857.59124369387     
  -7.88835266500000        4.14962472000000        2209.24954246687     
  -8.10000000000000        4.25000000000000        2130.87428890851     
  -8.10000000000000        4.75000000000000        1728.75370798834     
  -7.90465397000000        4.90062816500000        1357.97895196665     
  -7.90465397000000        4.65062816500000        1705.76632822687     
  -7.92506582500000        5.13655539500000        1190.39681445183     
  -8.10000000000000        5.25000000000000        1341.00856202339     
  -7.92506582500000        5.38655539500000        1033.61653001701     
  -7.94961143500000        5.58117612000000        561.270315638232     
  -8.10000000000000        5.75000000000000        821.058191896645     
  -7.94961143500000        5.83117612000000        458.517899257337     
  -7.70283623500000        5.81902758000000        373.050689437911     
  -7.85322480000000        5.98785146000000        389.858159798465     
  -7.52288488000000        5.76946282000000        799.543208126779     
  -7.36131881000000        5.94504263500000        793.201442803503     
  -7.27775409000000        5.73880253500000        857.310061098747     
  -6.87659269500000        5.85432717500000        1023.00128743599     
  -6.82400438500000        5.61812364000000        1204.46113245980     
  -7.06359971000000        5.67817881500000        1134.52230608471     
  -6.38801988000000        5.44708473500000        1454.94726292958     
  -6.61449746500000        5.54551211500000        1434.18926110147     
  -6.41051978500000        5.69584462000000        1410.92332865117     
  -5.98182430000000        5.45575945500000        2485.02093199118     
  -6.00186300000000        5.20023191500000        2513.50176924884     
  -6.20408090000000        5.34188970000000        2315.64663542428     
  -5.84226264500000        5.05271857000000        3927.69352798372     
  -5.60855901500000        5.13596474500000        4622.67953681820     
  -5.67121526000000        4.87458164500000        4643.75305599293     
  -5.49440069000000        4.49758997000000        5457.80399503605     
  -5.53763460500000        4.69739991000000        6797.71307974088     
  -5.39427771500000        4.75801788000000        7168.56405205114     
  -5.24690834500000        4.55971264000000        5418.61712345212     
  -5.31885220000000        4.66045962500000        4810.97791968455     
  -5.21471674500000        4.66196432500000        6441.05679026239     
  -5.36208611500000        4.86026956500000        5534.23343531517     
  -5.03675362500000        4.40975899500000        4250.52138414260     
  -5.09540116000000        4.35885613500000        6478.92537244870     
  -5.13092914500000        4.40940414000000        5030.63226294598     
  -5.10752725000000        4.51076217000000        3986.98743304758     
  -5.16617478500000        4.45985931000000        5412.27926374428     
  -5.08718597000000        4.15287609500000        5285.79790307803     
  -5.15521875000000        4.08198485000000        6554.61644320579     
  -5.17248735000000        4.14865793500000        6597.90408543513     
  -5.14701562500000        4.28902523000000        5471.19617866457     
  -5.21504840500000        4.21813398500000        8024.84896667444     
  -5.01216054000000        4.10715366500000        5440.37471832128     
  -5.04149663000000        4.14879366000000        5593.22230771785     
  -4.98373980000000        4.16974431500000        4510.34084096137     
  -4.90473062000000        4.14377965000000        5168.19344999712     
  -4.94177284500000        4.19347861500000        5895.87538116636     
  -4.89209975500000        4.20915394500000        6150.18826724411     
  -4.96518381000000        4.30903195000000        5352.67296867089     
  -4.97110893500000        4.23511861000000        4177.16111943799     
  -5.00715076500000        4.28529765000000        6033.36894694935     
  -5.05284010500000        4.28938008500000        5973.91857393413     
  -5.05876523000000        4.21546674500000        3732.39639955991     
  -4.86610883000000        4.09934366000000        6310.96082512195     
  -4.81715123500000        4.11111808000000        6998.96341645884     
  -4.82820253500000        4.05100676000000        5737.21246227840     
  -4.88701843000000        3.98158565500000        6088.26955299952     
  -4.83711707000000        3.99500080000000        7117.43408110467     
  -4.84697537000000        3.93735411500000        6164.11536354040     
  -4.74866957000000        3.95947499500000        6857.30975362422     
  -4.78815947500000        4.00677522000000        6765.08514769696     
  -4.73975503500000        4.01548095500000        8591.36975814166     
  -4.90650075000000        3.86677435000000        6034.71257486251     
  -4.85523437500000        3.88188890000000        7278.37403331019     
  -4.86485839500000        3.82472428000000        6573.39428537432     
  -4.92607125000000        3.75121020000000        6164.67537409724     
  -4.87253757500000        3.76711315500000        7397.13861911953     
  -4.88248405500000        3.70871362500000        6785.99424314793     
  -4.77655384000000        3.74583887000000        8082.72127587121     
  -4.82127120000000        3.78222770500000        7148.06719667124     
  -4.76887466000000        3.80344999500000        8243.00805370481     
  -4.64846482500000        3.79550811000000        5545.07714741017     
  -4.67501659500000        3.76962469000000        8404.32616767299     
  -4.69760553000000        3.79294458000000        6157.57354441964     
  -4.69170360500000        3.84741196500000        5855.74619873096     
  -4.71825537500000        3.82152854500000        8204.09264044987     
  -4.55326510000000        3.81007057500000        5895.76459848266     
  -4.57858705500000        3.78015611500000        9105.31926466775     
  -4.60055393500000        3.80210268000000        7106.44029340754     
  -4.59654667500000        3.85428061500000        5588.59466692544     
  -4.62186863000000        3.82436615500000        8945.64178649615     
  -4.63869167500000        3.89924981000000        5858.55276240935     
  -4.66510741000000        3.87627001000000        8076.44642073807     
  -4.68593771500000        3.89897573000000        6656.94288284161     
  -4.67989355500000        3.94506813000000        5857.75677937585     
  -4.70630929000000        3.92208833000000        6961.30763082004     
  -4.64445756500000        3.84768604500000        6708.54456136210     
  -4.75471373000000        3.91338259500000        8460.60380958831     
  -4.80533301500000        3.89530404500000        6896.69235118673     
  -4.76297273500000        3.85791738000000        8049.03925555161     
  -4.52953298500000        3.75692879000000        6426.84615310896     
  -4.50981537000000        3.76760889000000        6446.93203683273     
  -4.50805013500000        3.73641367000000        4866.79742875889     
  -4.53831235000000        3.69797435500000        6107.89388078734     
  -4.50979102500000        3.70859468000000        5267.50956573857     
  -4.52033562500000        3.68083546500000        6454.49531741329     
  -4.46796129000000        3.69910646000000        5616.03799138577     
  -4.49007341000000        3.71927478000000        6049.43211445595     
  -4.46622040000000        3.72692545000000        6709.75332396338     
  -4.54281699500000        3.64355616500000        5238.85196966833     
  -4.52179489500000        3.65423803500000        6498.99485349149     
  -4.51575494000000        3.62757906000000        4876.40958838671     
  -4.54668013500000        3.58932084500000        5615.64538314497     
  -4.51698744000000        3.60095209000000        5080.23286207533     
  -4.52689053500000        3.57337574500000        6374.66912289963     
  -4.47243748500000        3.59364869000000        5758.01886862602     
  -4.49596534000000        3.61163396000000        5512.35475865137     
  -4.47120498500000        3.62027566000000        6502.25010707340     
  -4.42368089500000        3.60937541500000        6065.70613900636     
  -4.44688061500000        3.62834332500000        5872.59052658038     
  -4.42288438000000        3.63542835000000        7264.88257718869     
  -4.37625603000000        3.62289589000000        6342.85019862697     
  -4.39931316000000        3.64197233500000        6185.53268763026     
  -4.37588453000000        3.64840778500000        7812.41416817831     
  -4.42152497000000        3.68712068000000        7235.38831484057     
  -4.42251288000000        3.66094024500000        5914.40471543887     
  -4.44509619000000        3.68057669500000        5902.77223530924     
  -4.46894920000000        3.67292602500000        6630.86983972656     
  -4.49327357000000        3.66485836000000        5649.22427288277     
  -4.47040847000000        3.64632859500000        5773.96654324888     
  -4.54885600500000        3.53278270500000        5453.52613526992     
  -4.52769740000000        3.54616578000000        6409.07795265571     
  -4.51997017500000        3.51720398500000        4889.13671869085     
  -4.54886416500000        3.46719208000000        6811.09785691150     
  -4.51978847500000        3.48884467000000        4960.87942481771     
  -4.52752386000000        3.45221584000000        6898.21851322817     
  -4.47403282000000        3.48506223000000        5533.92186318344     
  -4.49862987000000        3.50222774500000        5538.27699096488     
  -4.47421452000000        3.51342154500000        6179.92729721771     
  -4.53222803500000        3.34670455500000        7153.52132499172     
  -4.55980684500000        3.37638038500000        9293.39696044273     
  -4.52902074000000        3.40088742000000        7364.91993508788     
  -4.47546643500000        3.38052013500000        5432.71955685123     
  -4.49677106500000        3.39762447000000        5039.60192938800     
  -4.47079557000000        3.40693301500000        5379.19072542783     
  -4.52434987500000        3.42730030000000        6090.18820291842     
  -4.42499147000000        3.39872994000000        5483.39312725555     
  -4.44926810000000        3.41642170500000        5375.48390728928     
  -4.42476863000000        3.42532296500000        6319.12397618756     
  -4.37589634000000        3.41636722000000        5900.98283541659     
  -4.40057752500000        3.43412486500000        5732.57919180918     
  -4.37598186500000        3.44286088500000        6874.14530918074     
  -4.42514026000000        3.47843728000000        6550.96916824390     
  -4.42485415500000        3.45181663000000        5570.04464199509     
  -4.44933136500000        3.46963538000000        5485.11247477264     
  -4.47374671500000        3.45844158000000        5886.68507605364     
  -4.49527418500000        3.44895289000000        4779.33098575433     
  -4.47057273000000        3.43352604000000        4755.32848556705     
  -4.32693901500000        3.43358375000000        6303.83131037780     
  -4.35158401000000        3.45105894000000        6087.35408074317     
  -4.32722234500000        3.45953945000000        7383.08435477305     
  -4.27852054500000        3.45024213500000        6724.91055230101     
  -4.30310702000000        3.46738624000000        6501.18640821535     
  -4.27905021500000        3.47556411500000        7933.06011540451     
  -4.32795214500000        3.51051552000000        7736.14310593151     
  -4.32775201500000        3.48486143000000        6509.48031323648     
  -4.35206747000000        3.50266873000000        6324.19509067788     
  -4.23061813500000        3.46623345000000        7067.43577592501     
  -4.25523988000000        3.48307654000000        6828.11157661773     
  -4.23139427500000        3.49088998000000        8402.01329975855     
  -4.18266634500000        3.48122648000000        7365.88156223060     
  -4.20781765500000        3.49804826500000        6858.23636815234     
  -4.18371147000000        3.50522785500000        8861.04574976345     
  -4.23331194500000        3.53931829500000        8544.98407846912     