 TITLE = "Adapted Mesh"
 VARIABLES = "X", "Y"
 ZONE T = "Domain", N=       13871 E=       27162 
 DATAPACKING=POINT, ZONETYPE=FEQUADRILATERAL
  0.000000000000000E+000   3.25000000000000     
  0.000000000000000E+000   3.35065440820481     
  0.000000000000000E+000   3.45408305581161     
  0.000000000000000E+000   3.56048430903498     
  0.000000000000000E+000   3.67004194402138     
  0.000000000000000E+000   3.78292670606310     
  0.000000000000000E+000   3.89953802048711     
  0.000000000000000E+000   4.01989794031216     
  0.000000000000000E+000   4.14389246311028     
  0.000000000000000E+000   4.27166058920092     
  0.000000000000000E+000   4.40333268811658     
  0.000000000000000E+000   4.53903127661026     
  0.000000000000000E+000   4.67887170985512     
  0.000000000000000E+000   4.82296279176263     
  0.000000000000000E+000   4.97179232971223     
  0.000000000000000E+000   5.12524192692752     
  0.000000000000000E+000   5.28332193539893     
  0.000000000000000E+000   5.44611548428505     
  0.000000000000000E+000   5.61370321624037     
  0.000000000000000E+000   5.78710884280579     
  0.000000000000000E+000   5.96552295867081     
  0.000000000000000E+000   6.14923005357088     
  0.000000000000000E+000   6.33906363309202     
  0.000000000000000E+000   6.53417860009203     
  0.000000000000000E+000   6.73595100892125     
  0.000000000000000E+000   6.94345058505793     
  0.000000000000000E+000   7.15762147597203     
  0.000000000000000E+000   7.37837320587652     
  0.000000000000000E+000   7.60573693024928     
  0.000000000000000E+000   7.84013184831114     
  0.000000000000000E+000   8.08199652084417     
  0.000000000000000E+000   8.33123592048883     
  0.000000000000000E+000   8.58812135731189     
  0.000000000000000E+000   8.85290749800328     
  0.000000000000000E+000   9.12583385215647     
  0.000000000000000E+000   9.40712608682799     
  0.000000000000000E+000   9.69716995674931     
  0.000000000000000E+000   9.99629546742320     
  0.000000000000000E+000   10.3044834647838     
  0.000000000000000E+000   10.6221390235924     
  0.000000000000000E+000   10.9497464896789     
  0.000000000000000E+000   11.2873114095262     
  0.000000000000000E+000   11.6353110119263     
  0.000000000000000E+000   11.9941592780014     
  0.000000000000000E+000   12.3639812472497     
  0.000000000000000E+000   12.7451893719921     
  0.000000000000000E+000   13.1381705762379     
  0.000000000000000E+000   13.5432888877409     
  0.000000000000000E+000   13.9608868377879     
  0.000000000000000E+000   14.3912877775972     
  0.000000000000000E+000   14.8350577742103     
  0.000000000000000E+000   15.2925046077387     
  0.000000000000000E+000   15.7640383416259     
  0.000000000000000E+000   16.2500000000000     
  0.100000000000000        3.24999999535898     
  0.100000000000000        3.35065440356379     
  0.100000000000000        3.45408305117059     
  0.100000000000000        3.56048430439396     
  0.100000000000000        3.67004193938036     
  0.100000000000000        3.78292670142208     
  0.100000000000000        3.89953801584609     
  0.100000000000000        4.01989793567114     
  0.100000000000000        4.14389245846926     
  0.100000000000000        4.27166058455990     
  0.100000000000000        4.40333268347556     
  0.100000000000000        4.53903127196924     
  0.100000000000000        4.67887170521410     
  0.100000000000000        4.82296278712161     
  0.100000000000000        4.97179232507121     
  0.100000000000000        5.12524192228650     
  0.100000000000000        5.28332193075791     
  0.100000000000000        5.44611547964403     
  0.100000000000000        5.61370321159935     
  0.100000000000000        5.78710883816477     
  0.100000000000000        5.96552295402979     
  0.100000000000000        6.14923004892986     
  0.100000000000000        6.33906362845100     
  0.100000000000000        6.53417859545101     
  0.100000000000000        6.73595100428023     
  0.100000000000000        6.94345058041691     
  0.100000000000000        7.15762147133101     
  0.100000000000000        7.37837320123550     
  0.100000000000000        7.60573692560826     
  0.100000000000000        7.84013184367012     
  0.100000000000000        8.08199651620315     
  0.100000000000000        8.33123591584781     
  0.100000000000000        8.58812135267087     
  0.100000000000000        8.85290749336226     
  0.100000000000000        9.12583384751545     
  0.100000000000000        9.40712608218697     
  0.100000000000000        9.69716995210829     
  0.100000000000000        9.99629546278218     
  0.100000000000000        10.3044834601428     
  0.100000000000000        10.6221390189514     
  0.100000000000000        10.9497464850378     
  0.100000000000000        11.2873114048852     
  0.100000000000000        11.6353110072853     
  0.100000000000000        11.9941592733604     
  0.100000000000000        12.3639812426086     
  0.100000000000000        12.7451893673511     
  0.100000000000000        13.1381705715969     
  0.100000000000000        13.5432888830999     
  0.100000000000000        13.9608868331469     
  0.100000000000000        14.3912877729562     
  0.100000000000000        14.8350577695693     
  0.100000000000000        15.2925046030977     
  0.100000000000000        15.7640383369848     
  0.100000000000000        16.2499999860769     
   64.3598750040218       0.625966997630700     
  -7.88625879537606       0.215329158673041     
  -7.79941499504823        5.66092376372250     
   6.26545240047871        7.94580720008771     
   5.89801806228288        8.27038860154492     
   5.89138020057288        7.67787051560306     
   5.82287195960005        7.97432553906029     
   5.87823835748793        8.66128640897667     
   5.48188778241040        8.77618997368951     
   6.35903909909793        8.42768429161458     
   5.51470009567678        8.47087541988726     
   6.91664300742353        8.09718096402576     
   6.25620643302412        7.56061299418070     
   5.51391443145673        8.14743518875631     
   5.50094804594070        7.49390193533793     
   5.50944840334410        7.83430021890608     
   5.38824594821979        7.09670496435727     
   5.27276131189026        9.92083507557824     
   5.16157585756834        9.68170041422647     
   5.69036195142768        9.11117336357761     
   5.16474499858918        8.99404288385829     
   5.20069109520999        9.37047570101908     
   6.29619191114261        8.91724560665009     
   5.13453238903050        8.64910228947363     
   6.86766963377392        8.68151044815122     
   6.67780318131550        7.61943828939127     
   5.95688738022246        7.26275434502574     
   5.15420333366143        8.01248185449516     
   5.15116181834773        8.32506119226266     
   5.34432888269162        6.69519175251808     
   5.00723253637497        6.88762002719559     
   5.13931703188623        7.70162279854439     
   4.98221586849858        7.14750373143957     
   5.08714572997072        7.39136130698490     
   7.56534394044980        7.92580099519050     
   7.47415396875498        8.44666841534486     
   4.96396257059109        6.57844640040695     
   8.12643985382307        8.19040040713183     
   4.89324226761926        6.30722031848660     
   9.13009437969631        8.55203985172630     
   4.91063625305445        9.90378878877872     
   5.60181432298555        9.64666382125656     
   4.80925262529624        9.57633378405360     
   6.18696093062349        9.41922946925639     
   4.69977339725184        8.84276559854743     
   4.75937803613055        9.22173450451229     
   6.76957367982928        9.20993010937602     
   6.45206401726608        7.30429516398835     
   4.76939432979682        8.49057417509633     
   4.79212502723656        8.18235324085893     
   5.80863532013499        6.79864481688409     
   4.76488030675937        7.59192200093584     
   4.78990072410451        7.88444966170252     
   7.17266182655351        7.64305490499886     
   7.36196640822247        8.99965485993941     
   4.65579601200874        6.76062590258511     
   5.24256952501912        6.35081758915388     
   4.68274398835598        7.04408888148446     
   4.71894000192664        7.31386929834695     
   7.97548553064701        8.79709928433275     
   7.96659936712169        7.78043925211543     
   4.59895653296276        6.15578424500061     
   4.61669491970100        6.46633618814781     
   8.59636295790843        8.64219151281419     
   8.83481282356848        8.14456646340052     
   9.46668355765096        8.20632861299531     
   4.56263303660832        5.81023862436725     
   10.0133015711113        8.30036107445013     
   4.68145130879827        10.8194465742589     
   4.68650272098867        10.5104062903428     
   5.08801207505233        10.2666287757066     
   5.59230016048764        10.1143563613327     
   4.50043624350480        9.82648197753009     
   4.62282194810640        10.1618402675393     
   6.09453381635516        9.91670762873070     
   4.35538916142766        9.09169920890986     
   4.31030046571633        9.46525934298469     
   6.65221638032370        9.72099261128669     
   4.38956596405302        8.61479254409566     
   4.30669072638175        8.84478857956308     
   4.42751300485611        8.33290092240902     
   6.36609298814634        6.91185299090089     
   6.96703554384644        7.17454672095386     
   7.23184297459207        9.52966040858615     
   4.43768213641265        8.04890810115641     
   5.62790714609291        6.45900380381903     
   4.40305527073080        7.48871854832212     
   4.42803648033700        7.76691670586740     
   7.70041030228491        7.40860087653350     
   7.82852221246518        9.34420914679703     
   4.37119926253614        7.21364974797103     
   4.33906003993460        6.93492339097006     
   5.02295316442004        5.98168016885356     
   4.30367496884845        6.64639387156786     
   8.43675625671112        9.17299167921639     
   8.43827222218640        7.60888354225869     
   9.04220550893008        9.01108106568315     
   9.21545956319175        7.68081568175456     
   4.26451764645739        6.34407788183687     
   4.21600936499075        6.02016298103856     
   4.50076806902401        5.43082281959338     
   4.14384123750494        5.66434198722398     
   9.67566655192879        8.77155331632615     
   9.89474055437645        7.80206825777550     
   10.3902909264016        8.69176355277153     
   4.03279358958044        5.24630651894019     
   10.6038742417942        8.04354948969934     
   11.0612143814694        8.61294391157425     
   3.75826534250864        4.98231507604931     
   11.3886435289626        8.06736188733890     
   11.7105118498260        8.59916583744914     
   3.68788593222270        4.68198147255314     
   15.9168548707459        8.31651398867520     
   15.4116760927461        8.29280960282285     
   14.8165682404744        8.27978725556413     
   14.1856670446427        8.27709852028594     
   13.5184386656848        8.28582048604416     
   12.7632535095328        8.31583126358713     
   12.2436471751205        8.61497326508688     
   12.0643065615077        8.12987110822025     
   3.20547210096136        4.26381710039430     
   4.48436927495309        11.3683357757544     
   4.44371442089399        11.0349963573135     
   4.37540393677526        10.7169525617341     
   5.03253628859967        10.7114082692605     
   5.49352374879206        10.5530359045182     
   4.22997743027573        10.0795483783694     
   4.31655087787968        10.3967168479906     
   5.99651019391230        10.3897049454487     
   3.94746890717837        9.42243920143697     
   3.97554395673287        9.58957974751385     
   4.11206981030217        9.78593952536838     
   6.52839673454802        10.2163374110180     
   4.04563532300324        8.71857017104595     
   4.02975325753041        8.96491511797952     
   4.01362717298499        9.22198272828867     
   6.84146558461042        6.56719711252841     
   7.08987093381049        10.0421681972817     
   4.07355273140142        8.46454308968290     
   4.08721660827452        8.19766941448596     
   6.13826366554142        6.36939803986659     
   4.08569133631029        7.92693534141616     
   7.52447068738987        6.77527701173286     
   7.67263186659186        9.87140393018298     
   4.07151327459224        7.65535126177256     
   4.04823385700300        7.38329304486489     
   4.01930133480148        7.10862382209360     
   5.57983451064318        6.08267659626084     
   8.27113096528814        9.70763377184594     
   8.23355626533431        6.96146706180720     
   8.88030630233063        9.55124997053228     
   8.95528777907808        7.10574872920041     
   3.98528173336224        6.82763470784346     
   3.94406528039022        6.53664520934365     
   3.89143203376177        6.23158567765876     
   4.87900352607355        5.60411879396574     
   9.50316110517138        9.39312845968350     
   9.66707297993015        7.22685623115050     
   10.1503042136481        9.26215222469904     
   4.46669191494340        5.01999767728631     
   3.71821762501161        5.56448095040604     
   3.81961934083181        5.90798131280037     
   10.3668037961292        7.36419587164651     
   10.8044864880672        9.17481808573285     
   4.05982234325256        4.82390860758711     
   3.57201974392384        5.23426584385209     
   11.0797930316834        7.47662615008479     
   11.4397152078953        9.11422511083643     
   3.42916523409078        4.92189572475427     
   3.31662573323537        4.59503047682834     
   21.2184282798946        8.30351814808955     
   20.8122818167530        8.43899167829947     
   20.3144447228263        8.34603702455856     
   19.6499890496135        8.28441132750888     
   18.8807606911602        8.22801894016841     
   18.3408458400573        7.91066303202259     
   18.1872912619457        8.42133196354654     
   17.8059541180146        7.94220658222721     
   17.5496265986559        8.50151341312490     
   17.1632859381310        7.97329462741777     
   16.8981699835428        8.56913721502472     
   16.4242646984637        8.01634406633896     
   16.2810558818903        8.67650695356759     
   15.7526872259054        7.83555956987664     
   15.7124548914746        8.76551785925695     
   15.1362624266000        7.77317644361213     
   15.1332658276806        8.79145337190151     
   14.5244819345501        8.80793261965352     
   14.5054044942743        7.74234070857337     
   13.8921533560552        8.83080350295042     
   13.8521365847998        7.72281479974153     
   13.2399148056638        8.87407293408019     
   13.1686405485120        7.70204590022971     
   12.6192835593871        8.97345767036207     
   12.4733572093359        7.63946230350546     
   12.0404656873939        9.06765543065034     
   11.7848892532525        7.55175797352681     
   2.32043251152454        3.77297194166618     
   2.69071935599165        3.72533979654981     
   2.83287071578175        4.14219806679976     
   3.26186948901394        4.06228044944425     
   4.42767990896694        11.7056336549785     
   4.20003966340725        11.5230622107585     
   4.15696910382359        11.2472493698383     
   4.09555670628506        10.9332971282850     
   4.86826770621280        11.1319218198301     
   5.37602252587904        10.9944546134055     
   4.02832638329045        10.6174331576515     
   5.87385585897127        10.8481511955443     
   3.87007623447021        10.0141107472957     
   3.95497090263512        10.3073246122550     
   3.78168504251951        9.75693330355146     
   3.72164198352811        9.53435077522037     
   6.39377416180022        10.6958859082494     
   3.72088055487944        9.08430582665412     
   3.71100622474683        9.31736998687808     
   6.93887324692949        10.5398531247116     
   3.73774419247339        8.59062634280823     
   3.72833303487751        8.83922043405482     
   3.74556175189201        8.33602028822479     
   6.67882072992791        5.99204924664173     
   7.34591242991425        6.18400764253051     
   7.50715180926842        10.3843175845888     
   3.74557943159059        8.07585531653763     
   3.71981023870419        7.54655010190796     
   6.04017296978427        5.77669547825232     
   3.73668918938198        7.81239632244205     
   8.02758442378695        6.36036280937910     
   8.09409930502752        10.2329507573213     
   8.69534560949197        10.0883369309730     
   8.72259597746621        6.51434024798786     
   3.62821194145199        6.72480505302742     
   5.38714074447696        5.55840741277183     
   3.66622129855093        7.00464309267823     
   3.69622633027068        7.27783444932533     
   9.30839118582937        9.95157732515329     
   9.42088127285573        6.64624358279932     
   9.93296103390190        9.82893027661657     
   4.90965412211298        5.23647239405279     
   3.51210911409154        6.13569665363824     
   3.57865902812631        6.43593919334707     
   10.1152801219158        6.76620888796737     
   10.5643697088473        9.72979218551929     
   3.42210585136810        5.82315035546129     
   4.42743379199959        4.58052624265056     
   3.30503173223202        5.50335608009174     
   10.8078130004307        6.87460459196997     
   11.1912253516576        9.65369041388707     
   3.17481935381792        5.18116077260362     
   3.98238677228619        4.43216989645458     
   3.05250415950250        4.85237455932012     
   29.3595677926136        8.29987646731123     
   28.7755715214750        8.26890421309572     
   28.0915656484926        8.25142411433429     
   27.3716208155113        8.24678218163876     
   26.6183078116705        8.25532986147587     
   25.7803716057271        8.28653415115436     
   25.2012593351845        8.61782858987441     
   25.0385312558448        8.07235441947371     
   24.3599321095655        7.99746148407160     
   24.6425146498021        8.58483739814021     
   23.9880327723452        8.56437206128815     
   23.6704357860210        7.95983314775484     
   23.2996117576801        8.55466176602878     
   22.9643965784188        7.93530876333039     
   22.5807686442990        8.55305004243983     
   22.2403902710768        7.91033767174858     
   21.7874553308884        8.55706868731839     
   21.5354996053848        7.85434667580896     
   21.1425391694476        8.80482892444593     
   20.8130162589947        7.86752477805723     
   20.5713605104642        8.87753665480571     
   20.0787266299722        7.73424817847609     
   19.9589490318702        8.87709736919806     
   19.3771964625856        7.64608395544046     
   19.2867549680738        8.87716073993499     
   18.7180105889864        7.52738660060285     
   18.6015393314856        8.92983159871042     
   18.1082114741532        7.43435584516944     
   17.9411436855051        9.01591291504201     
   17.4827639041136        7.41205935524166     
   17.2981358801541        9.08781860397523     
   16.8158806545367        7.39925791692407     
   16.6692341703206        9.16122635281674     
   16.1397464013470        7.34645877667917     
   16.0622943769119        9.23382456388169     
   15.4861606476782        7.27156034038762     
   15.4666918888323        9.28697992434467     
   14.8439517199788        7.22146620943151     
   14.8645660510389        9.32176733305005     
   14.2502183884031        9.35367467173683     
   14.1953915381069        7.18491327196062     
   13.6269567167292        9.39413053934122     
   13.5337446311336        7.15043154898085     
   13.0077642130748        9.45345686869907     
   12.8604313324825        7.10405756908666     
   12.4038119808375        9.52541173016627     
   12.1819951815438        7.03941059062548     
   11.8039074214056        9.59107501770969     
   11.4983656944778        6.96370206383251     
   3.57535620471578        4.33547526205532     
   2.93979606469194        4.51223505683451     
   1.36206301637863        3.17945074712908     
   1.84182538907215        3.30710175334061     
   1.80508335784872        3.60637473689553     
   2.09374584881887        3.50190880623964     
   2.44466757077598        3.46285229368941     
   1.96457181158735        3.79571187311864     
   2.43003551085792        4.11424114818530     
   3.12696705129109        3.69534082397677     
   4.34261509004671        12.0063197826677     
   4.03214120336873        11.8219062346971     
   3.89786212736986        11.4741501373978     
   3.82020040464360        11.1549140497340     
   4.80861776318726        11.5706359884502     
   5.25076912029194        11.4291135121323     
   3.74972483278344        10.8372956884399     
   5.73766210158468        11.2977191231508     
   3.67921161313505        10.5254290667022     
   3.60685538548285        10.2256992876773     
   3.53534360355371        9.94591544518559     
   3.47525533390358        9.68924311531860     
   6.24678145171388        11.1629965059529     
   6.77896058519068        11.0244384567581     
   3.41650720850037        8.72008665160513     
   3.41797751367051        8.96638440722602     
   3.42293730664615        9.20908617174376     
   3.43824316758431        9.44786915461683     
   3.41596526627000        8.47073709941103     
   7.16054688756116        5.62093307774068     
   7.33360716713431        10.8845150273223     
   3.41313058105011        8.21778087287007     
   6.52660895043698        5.43362232391381     
   3.40553517701908        7.96142367684189     
   7.81839204969334        5.78750409620309     
   7.90810827426155        10.7466622234401     
   8.49869209135374        10.6141330853736     
   8.49291579875912        5.93786699370062     
   5.91478496762247        5.22281879535683     
   3.34829389033920        7.17440306560328     
   3.37339135192107        7.43995323973187     
   3.39233535456568        7.70213306066653     
   9.10159108984736        10.4896765656437     
   9.17537108595966        6.07178279883438     
   9.71361035009993        10.3765155768753     
   5.35192224543580        5.00217510987082     
   3.27231689354176        6.62942040728041     
   3.31558474257228        6.90459721711980     
   9.85862875249958        6.18985332349050     
   10.3310551408464        10.2786134407801     
   3.13453767051868        6.05819660088677     
   4.86566744005557        4.80143188840579     
   3.21392768298607        6.34766281793224     
   10.5399409602567        6.29361777922559     
   10.9484622811118        10.1975118492079     
   2.77457750777732        5.11944289400454     
   4.27180939565292        4.24316577893647     
   3.02864381627032        5.75988877603146     
   2.89810056276873        5.44875825299982     
   37.3929187864712        8.29979653044518     
   36.7578407419245        8.25841785108764     
   36.0086795527504        8.22605845482885     
   35.2061622402798        8.19611886561740     
   34.3057978600716        8.15229474986288     
   33.6844380520715        7.79471680807976     
   33.5023810395395        8.37993008454686     
   33.0760508175276        7.83192579424413     
   32.7705225509583        8.46312918842188     
   32.3630910126828        7.86021257596130     
   32.0282011425201        8.51186239609686     
   31.6126599507776        7.88355644015973     
   31.2704637701789        8.55474412565781     
   30.8277167012530        7.90927575450366     
   30.5000079697976        8.61190703677875     
   29.9550962464733        7.95218475297438     
   29.7762550207078        8.72565745871736     
   29.1763482224396        7.73647257214494     
   29.1143668087341        8.82245195584624     
   28.4666376742064        7.66293774537507     
   28.4448784296441        8.84747429876986     
   27.7455832510576        7.62789555419692     
   27.7452092220041        8.86236138087757     
   27.0235344679420        8.88447018683355     
   27.0058054883433        7.60731902924379     
   26.2861991604315        8.92826157107582     
   26.2427775129922        7.58681631680638     
   25.5909734190130        9.03173865858792     
   25.4852605377839        7.52154130292910     
   24.7626087378153        7.43401797165594     
   24.9550680795163        9.12162306898981     
   24.3135831308313        9.14280919014118     
   24.0581704407372        7.37696675802541     
   23.6434534588795        9.15326043829650     
   23.3529335982783        7.33723038419904     
   22.9516682901176        9.16798966153802     
   22.6422106094646        7.30322643116663     
   22.2416233957031        9.19817303428118     
   21.9312396104142        7.26514669301511     
   21.5526366214906        9.28001972094331     
   21.2208025458700        7.22829767389405     
   20.9124193426541        9.37575997657359     
   20.5084646177051        7.17217459462903     
   20.2862940892875        9.42556176041454     
   19.8058705799428        7.09277480621246     
   19.6428619710224        9.45386151056417     
   19.1259141982316        7.01150133887420     
   18.9836686029668        9.49060045137460     
   18.4710850879353        6.93409228432309     
   18.3262198817165        9.54612019449806     
   17.8268921736880        6.87935072983392     
   17.6802534489697        9.60913330732352     
   17.1734288373623        6.84355850477942     
   17.0464614094136        9.67118401119131     
   16.5099390543762        6.80426543417825     
   16.4254534920362        9.73149334592991     
   15.8487985465767        6.75325188373338     
   15.8151990082471        9.78528899069179     
   15.1953827891517        6.70186887839616     
   15.2086530148564        9.82929407164834     
   14.5444734374381        6.65805031600103     
   14.5997082207720        9.86746601146637     
   13.9873332385140        9.90699650075410     
   13.8899537754636        6.61788277034452     
   13.3751954017940        9.95384485185745     
   13.2294350104163        6.57442634332164     
   12.7680964341891        10.0092641861613     
   12.5636537779489        6.52173423204010     
   12.1653480351762        10.0687393568519     
   11.8934917174383        6.45803799254846     
   11.5603797838035        10.1298557287363     
   11.2186780385343        6.38277373651924     
   3.97430861164126        4.03493718478666     
   2.66316094451197        4.77964207044883     
   2.55547544676621        4.43713957254910     
   1.18919378551488        3.18745457201528     
   1.25901114582790        3.02296011346287     
   1.70762013185931        3.16476194938910     
   1.53847611484934        3.45695279603243     
   2.00883072152008        3.18689101568445     
   2.22838111272645        3.24281993842436     
   1.76692744641717        3.75514808824651     
   2.81397713769258        3.42402981938304     
   4.04078319040749        12.2670108101732     
   3.67002095787421        12.3530945107496     
   3.68528678543148        12.0595795878388     
   3.62937650863112        11.7162923639342     
   3.54845041304439        11.3837619763156     
   4.69654061199819        11.9436261471436     
   5.12315908926347        11.8464366134247     
   3.47437309065120        11.0600007680359     
   5.59153290653160        11.7356116895694     
   3.40400577162357        10.7428185623195     
   3.33574922720686        10.4353182731198     
   3.27055535397767        10.1417233029570     
   6.08938152310341        11.6189647479692     
   6.61041856307043        11.4974374231131     
   3.11784960240982        9.10226961153043     
   3.13634373081168        9.35067031972803     
   3.16688235722808        9.60291455044947     
   3.21242618747133        9.86475767329288     
   3.10642711107119        8.85456976355404     
   3.09839220250798        8.60634145126955     
   7.15302145082841        11.3731534628140     
   3.09109650529866        8.35672164292762     
   6.97484127003717        5.08548111875480     
   7.60293630308533        5.23789302928231     
   7.71540497767338        11.2491647044828     
   8.25963943804786        5.37662576054415     
   8.29468797109166        11.1287814024055     
   3.08232433082453        8.10504837061214     
   6.37979512325694        4.90015570057319     
   3.05473303516039        7.59469526682630     
   3.07052977026025        7.85105750566149     
   8.88722071257196        11.0150633650641     
   8.92949015693264        5.50733222341242     
   9.48916902735409        10.9107195960861     
   5.79592971911615        4.66249286190207     
   2.97084806611370        6.81061844704576     
   3.00685878441594        7.07461691791552     
   3.03399815536827        7.33591782245505     
   9.60126928871857        5.62515547335191     
   10.0967344524820        10.8180763883829     
   5.23430583193869        4.52921776717339     
   2.92216325530874        6.54371370813706     
   10.2719073253847        5.72700921815191     
   10.7060590855215        10.7383133711290     
   4.80466813711996        4.44204708703703     
   2.76289591717831        5.99962662348361     
   2.85537482542144        6.27365346466970     
   48.2534751152399        8.06964964725741     
   47.5644158622156        8.11063321380388     
   46.7605364012784        8.13952260092205     
   45.9208998957339        8.16031093382347     
   45.0585261457271        8.17929807656575     
   44.1649675126280        8.20380288059406     
   43.1767948602876        8.25002425219238     
   42.5027174373805        8.64470930724762     
   42.2996621547554        8.00438634568185     
   41.8454823547783        8.60972008338978     
   41.5022229827655        7.92409806445626     
   41.0784878128721        8.59211284375642     