 TITLE = "Edge Error"
 VARIABLES = "X", "Y","Estimate1" 
 ZONE T = "Domain", I=       33744  DATAPACKING=POINT, ZONETYPE=ORDERED
  2.983921540000000E-002   3.25087014000000        48732.0794076186     
  2.419026880000000E-002   3.27532718500000        57174.2816057854     
  5.402948420000001E-002   3.27619732500000        22787.2403210232     
  7.057607765000000E-002   3.25165132000000        9893.47335916542     
  6.744864700000000E-002   3.26367923000000        12931.7838502630     
  7.834629385000000E-002   3.26359027000000        10760.7861598906     
  8.448686224999999E-002   3.25078118000000        2837.19810343790     
  8.448686224999999E-002   3.25707208000000        5437.44055396353     
  8.749999999999999E-002   3.25629090000000        5733.99826096485     
  9.375000000000000E-002   3.25000000000000        5882.11435219505     
  0.100000000000000        3.25629090000000        6262.65473528218     
  9.375000000000000E-002   3.26258180000000        6221.93837058509     
  8.749999999999999E-002   3.26887270000000        6499.22643133010     
  0.100000000000000        3.26887270000000        7933.28500686920     
  9.375000000000000E-002   3.27516360000000        7881.70711550536     
  8.135943160000000E-002   3.26909999000000        7680.75663505925     
  8.135943160000000E-002   3.27539089000000        6348.26084696359     
  8.135943160000000E-002   3.28168179000000        10627.9995396831     
  8.749999999999999E-002   3.28145450000000        7747.50962386511     
  0.100000000000000        3.28145450000000        8555.72192535044     
  9.375000000000000E-002   3.28774540000000        8500.09728869325     
  8.749999999999999E-002   3.29403630000000        7965.67609040355     
  0.100000000000000        3.29403630000000        8555.72192535044     
  9.375000000000000E-002   3.30032720000000        7913.88760988449     
  8.124999999999999E-002   3.29403630000000        11165.2357056751     
  8.124999999999999E-002   3.30032720000000        7913.88760988448     
  7.510943160000000E-002   3.28797269000000        15555.8748511663     
  6.179970040000000E-002   3.28813627500000        14483.2526389611     
  6.169026880000000E-002   3.30049078500000        16759.2262306992     
  6.169026880000000E-002   3.31307258500000        16668.1943015687     
  7.500000000000000E-002   3.31290900000000        15841.4399897674     
  8.749999999999999E-002   3.30665900500000        8017.47090203284     
  8.124999999999999E-002   3.31924080500000        8093.43147956355     
  0.100000000000000        3.31290900000000        9867.61876649818     
  9.375000000000000E-002   3.31924080500000        6964.73076126499     
  8.749999999999999E-002   3.32549080000000        11445.8451428734     
  7.500000000000000E-002   3.33807260000000        11520.7467534883     
  0.100000000000000        3.33807260000000        7672.50390690942     
  8.749999999999999E-002   3.35065440000000        5741.79579270505     
  6.444435279999999E-002   3.33826819000000        18864.4306178877     
  6.444435279999999E-002   3.35084999000000        12016.7469688872     
  5.113462160000000E-002   3.32584997500000        28849.0458251875     
  2.419026880000000E-002   3.32565439000000        28833.3054427153     
  2.694435280000000E-002   3.35084999500000        30669.5006811724     
  0.000000000000000E+000   3.30032720500000        82157.2285216456     
  2.500000000000000E-002   3.37651157000000        29810.5510813576     
  5.194435280000000E-002   3.37670715500000        29292.3275435318     
  6.444435279999999E-002   3.36377857500000        18825.5009463132     
  7.500000000000000E-002   3.36358298500000        4184.66452974402     
  0.100000000000000        3.36358298500000        5938.66359669039     
  8.749999999999999E-002   3.37651157000000        3372.46282517968     
  7.500000000000000E-002   3.38944015000000        3230.32165390801     
  0.100000000000000        3.38944015000000        3488.09243458894     
  8.749999999999999E-002   3.40236873000000        2926.29669334815     
  6.250000000000000E-002   3.38944015000000        10319.8499707555     
  6.250000000000000E-002   3.40236873000000        7173.22759157594     
  5.000000000000000E-002   3.42822589000000        14838.3434841435     
  7.500000000000000E-002   3.41572589500000        3126.96222176044     
  6.250000000000000E-002   3.44158305500000        1392.27007685921     
  0.100000000000000        3.42822589000000        3200.57907921199     
  8.749999999999999E-002   3.44158305500000        1176.52114068255     
  7.500000000000001E-002   3.45408305000000        1968.96761897401     
  2.500000000000000E-002   3.42822589500000        20639.7020043088     
  2.500000000000000E-002   3.45408305500000        7186.71157326896     
  0.000000000000000E+000   3.40236873500000        42862.9525058860     
  0.000000000000000E+000   3.50728368500000        15293.5018957054     
  5.000000000000000E-002   3.48068336500000        2095.00635558035     
  2.500000000000000E-002   3.53388399500000        598.637919690795     
  0.100000000000000        3.48068336500000        1446.61677544634     
  7.500000000000001E-002   3.50728368000000        577.004642015253     
  0.100000000000000        3.53388399000000        613.940093961792     
  5.000000000000000E-002   3.56048430500000        465.723655425401     
  0.000000000000000E+000   3.61526312500000        559.692439117172     
  0.100000000000000        3.61526312000000        510.235845805798     
  5.000000000000000E-002   3.67004194000000        510.865778236689     
  0.000000000000000E+000   3.72648432500000        576.689658771197     
  0.100000000000000        3.72648432000000        305.989849429244     
  5.000000000000000E-002   3.78292670500000        234.079313479338     
  0.000000000000000E+000   3.84123236500000        294.405490161867     
  0.100000000000000        3.84123236000000        213.212344376569     
  5.000000000000000E-002   3.89953802000000        252.467355149227     
  0.000000000000000E+000   3.95971798000000        303.869506683725     
  0.100000000000000        3.95971798000000        255.865354332699     
  5.000000000000000E-002   4.01989794000000        212.583519773608     
  0.000000000000000E+000   4.08189520000000        253.893400081543     
  0.100000000000000        4.08189520000000        263.591914942391     
  5.000000000000000E-002   4.14389246000000        178.901689603199     
  0.000000000000000E+000   4.20777652500000        201.811059773087     
  0.100000000000000        4.20777652000000        228.579325454243     
  5.000000000000000E-002   4.27166058500000        148.268997865608     
  0.000000000000000E+000   4.33749664000000        191.274367073260     
  0.100000000000000        4.33749663000000        195.228903138601     
  5.000000000000000E-002   4.40333268500000        130.865525808411     
  0.000000000000000E+000   4.47118198500000        177.582673318098     
  0.100000000000000        4.47118197500000        175.775643821241     
  5.000000000000000E-002   4.53903127500000        117.673092799620     
  0.000000000000000E+000   4.60895149500000        164.554558965288     
  0.100000000000000        4.60895149000000        162.769690081796     
  5.000000000000000E-002   4.67887171000000        105.874921893841     
  0.000000000000000E+000   4.75091725000000        152.556318405992     
  0.100000000000000        4.75091725000000        150.804116393695     
  5.000000000000000E-002   4.82296279000000        94.3336961432917     
  0.000000000000000E+000   4.89737756000000        139.806606295400     
  0.100000000000000        4.89737756000000        140.396406035059     
  5.000000000000000E-002   4.97179233000000        84.5543455576477     
  0.000000000000000E+000   5.04851713000000        129.748305040827     
  0.100000000000000        5.04851712500000        129.524727424856     
  5.000000000000000E-002   5.12524192500000        75.9884339061013     
  0.000000000000000E+000   5.20428193500000        120.122523917608     
  0.100000000000000        5.20428192500000        119.524838416097     
  5.000000000000000E-002   5.28332193500000        69.6185492284248     
  0.000000000000000E+000   5.36471871000000        113.334500785594     
  0.100000000000000        5.36471870500000        110.204046044306     
  5.000000000000000E-002   5.44611548000000        62.2212775558310     
  0.000000000000000E+000   5.52990935000000        104.275232854944     
  0.100000000000000        5.52990934500000        100.658309565938     
  5.000000000000000E-002   5.61370321500000        55.2762270398847     
  0.000000000000000E+000   5.70040603000000        95.8520842111195     
  0.100000000000000        5.70040602500000        91.8805377526706     
  5.000000000000000E-002   5.78710884000000        47.7827462323633     
  0.000000000000000E+000   5.87631590000000        85.2511662023043     
  0.100000000000000        5.87631589500000        82.1855345193345     
  5.000000000000000E-002   5.96552295500000        40.7447467232184     
  0.000000000000000E+000   6.05737650500000        74.8509885330943     
  0.100000000000000        6.05737650000000        73.8875531500886     
  5.000000000000000E-002   6.14923005000000        35.0909626895697     
  0.000000000000000E+000   6.24414684000000        66.6144307300746     
  0.100000000000000        6.24414684000000        65.5436619348503     
  5.000000000000000E-002   6.33906363000000        30.3032403943331     
  0.000000000000000E+000   6.43662111500000        59.1261584044309     
  0.100000000000000        6.43662111500000        58.2792264877391     
  5.000000000000000E-002   6.53417860000000        26.4220200527690     
  0.000000000000000E+000   6.63506480500000        53.3123466311554     
  0.100000000000000        6.63506480000000        52.4749883949315     
  5.000000000000000E-002   6.73595100500000        23.0936925314860     
  0.000000000000000E+000   6.83970080000000        47.9193150093246     
  0.100000000000000        6.83970079000000        47.1478449443823     
  5.000000000000000E-002   6.94345058500000        20.2134215348836     
  0.000000000000000E+000   7.05053603500000        43.2912648007116     
  0.100000000000000        7.05053602500000        42.5664616636278     
  5.000000000000000E-002   7.15762147500000        17.6584403338973     
  0.000000000000000E+000   7.26799734500000        38.9813125280958     
  0.100000000000000        7.26799733500000        38.2915672152000     
  5.000000000000000E-002   7.37837320500000        15.3946073631225     
  0.000000000000000E+000   7.49205507000000        35.0017519801891     
  0.100000000000000        7.49205506500000        34.3425102440884     
  5.000000000000000E-002   7.60573693000000        13.4071120880545     
  0.000000000000000E+000   7.72293439000000        31.4255896531057     
  0.100000000000000        7.72293438500000        30.8943696378155     
  5.000000000000000E-002   7.84013184500000        11.6905971323108     
  0.000000000000000E+000   7.96106418500000        28.2754241750930     
  0.100000000000000        7.96106418000000        27.9639597205249     
  5.000000000000000E-002   8.08199652000000        10.1665491193204     
  0.000000000000000E+000   8.20661622000000        25.3390460256993     
  0.100000000000000        8.20661622000000        25.2470581204588     
  5.000000000000000E-002   8.33123592000000        8.82070582474200     
  0.000000000000000E+000   8.45967864000000        22.6181760510472     
  0.100000000000000        8.45967863500000        22.6591080869236     
  5.000000000000000E-002   8.58812135500000        7.68708520527183     
  0.000000000000000E+000   8.72051443000000        20.2648110904407     
  0.100000000000000        8.72051442000000        20.3543361935503     
  5.000000000000000E-002   8.85290749500000        6.75326706930214     
  0.000000000000000E+000   8.98937067500000        18.4028826381775     
  0.100000000000000        8.98937067000000        18.4314459933249     
  5.000000000000000E-002   9.12583385000000        5.97808238001251     
  0.000000000000000E+000   9.26647997000000        16.8158818357826     
  0.100000000000000        9.26647996500000        16.7922012561509     
  5.000000000000000E-002   9.40712608500000        5.27577449730800     
  0.000000000000000E+000   9.55214802500000        15.3020605244651     
  0.100000000000000        9.55214801500000        15.1908175770896     
  5.000000000000000E-002   9.69716995500000        4.64335901116625     
  0.000000000000000E+000   9.84673271500000        13.8894713232819     
  0.100000000000000        9.84673270500000        13.6662071330788     
  5.000000000000000E-002   9.99629546500000        4.12342722272785     
  0.000000000000000E+000   10.1503894850000        12.7079091262086     
  0.100000000000000        10.1503894800000        12.4161918845749     
  5.000000000000000E-002   10.3044835000000        3.68585754684173     
  0.000000000000000E+000   10.4633112500000        11.7083292197079     
  0.100000000000000        10.4633112500000        11.3867923327198     
  5.000000000000000E-002   10.6221390000000        3.29258084394457     
  0.000000000000000E+000   10.7859427500000        10.7867417883257     
  0.100000000000000        10.7859427500000        10.4541789298879     
  5.000000000000000E-002   10.9497465000000        2.93777644929895     
  0.000000000000000E+000   11.1185289500000        9.91690213329957     
  0.100000000000000        11.1185289500000        9.59306199611850     
  5.000000000000000E-002   11.2873114000000        2.61580948638324     
  0.000000000000000E+000   11.4613112000000        9.10300654937573     
  0.100000000000000        11.4613112000000        8.79195498558278     
  5.000000000000000E-002   11.6353110000000        2.30582630606191     
  0.000000000000000E+000   11.8147351500000        8.27441850025596     
  0.100000000000000        11.8147351500000        8.01923121949087     
  5.000000000000000E-002   11.9941593000000        2.00858621826236     
  0.000000000000000E+000   12.1790702500000        7.42819171551602     
  0.100000000000000        12.1790702500000        7.33519913279878     
  5.000000000000000E-002   12.3639812000000        1.76062953257480     
  0.000000000000000E+000   12.5545853000000        6.69427788350676     
  0.100000000000000        12.5545853000000        6.71166414979682     
  5.000000000000000E-002   12.7451894000000        1.57678837668322     
  0.000000000000000E+000   12.9416800000000        6.01438977462002     
  0.100000000000000        12.9416800000000        6.19648188415028     
  5.000000000000000E-002   13.1381706000000        1.42368158406127     
  0.000000000000000E+000   13.3407297500000        5.76759463076209     
  0.100000000000000        13.3407297500000        5.63741514994016     
  5.000000000000000E-002   13.5432889000000        1.27405167764814     
  0.000000000000000E+000   13.7520878500000        5.32041305077343     
  0.100000000000000        13.7520878500000        5.07018705357208     
  5.000000000000000E-002   13.9608868000000        1.16158345055056     
  0.000000000000000E+000   14.1760873000000        4.99946678700411     
  0.100000000000000        14.1760873000000        4.64011280355613     
  5.000000000000000E-002   14.3912878000000        1.10448723751911     
  0.000000000000000E+000   14.6131728000000        4.90138301393854     
  0.100000000000000        14.6131728000000        4.14730003863590     
  5.000000000000000E-002   14.8350578000000       0.972283078273867     
  0.000000000000000E+000   15.0637812000000        4.44767782850530     
  0.100000000000000        15.0637812000000        3.86248789325477     
  5.000000000000000E-002   15.2925046000000       0.677494583518316     
  0.000000000000000E+000   15.5282714500000        7.91246295629490     
  0.100000000000000        15.5282714500000        4.44693776536639     
  5.000000000000000E-002   15.7640383000000        1.67802703312508     
  0.000000000000000E+000   16.0070191500000        22.0935183320245     
  0.100000000000000        16.0070191500000        5.84622260337655     
  5.000000000000000E-002   16.2500000000000        4.54634970863434     
  -7.99303003000000       0.107810303000000        628.051340435000     
  -8.10000000000000       0.250000000000000        1033.83787646971     
  -7.99303003000000       0.357810303000000        690.320503548473     
  -7.90686060500000       0.608115594500000        1147.67553363947     
  -8.10000000000000       0.750000000000000        1421.79464778584     
  -7.90686060500000       0.858115594500000        1362.95475053320     
  -7.88611881500000        1.10079030500000        1733.80498996105     
  -8.10000000000000        1.25000000000000        1892.49611091145     
  -7.88611881500000        1.35079030500000        1974.13662468178     
  -7.88514703500000        1.60632365500000        2153.81641381070     
  -8.10000000000000        1.75000000000000        2330.40136768451     
  -7.88514703500000        1.85632365500000        2409.31835957053     
  -8.10000000000000        2.25000000000000        2544.94701349256     
  -7.89058624500000        2.35831551500000        2585.08385222571     
  -7.89058624500000        2.10831551500000        2410.52229847220     
  -7.89099101000000        2.86011840500000        2723.55610897845     
  -7.89099101000000        2.61011840500000        2558.34854059631     
  -8.10000000000000        2.75000000000000        2550.23133363608     
  -7.88801054500000        3.36620989000000        2591.55314845759     
  -7.88801054500000        3.11620989000000        2499.28241123059     
  -8.10000000000000        3.25000000000000        2550.23133363608     
  -7.88407630500000        3.87826605000000        2219.02008443881     
  -7.88407630500000        3.62826605000000        2330.63733674913     
  -8.10000000000000        3.75000000000000        2319.98574061756     
  -7.88946549000000        4.39159580500000        1770.64221105778     
  -7.88946549000000        4.14159580500000        1974.40207007225     
  -8.10000000000000        4.25000000000000        1945.44898166642     
  -8.10000000000000        4.75000000000000        1703.93428255680     
  -7.90562715500000        4.89653889000000        1428.69006301045     
  -7.90562715500000        4.64653889000000        1659.10287068882     
  -7.92550752500000        5.13486332000000        1279.42585180708     
  -8.10000000000000        5.25000000000000        1450.36520143442     
  -7.92550752500000        5.38486332000000        1115.04299698738     
  -7.94975328000000        5.58062408000000        614.539361332581     
  -8.10000000000000        5.75000000000000        901.021048927225     
  -7.94975328000000        5.83062408000000        493.225852525539     
  -7.70297808000000        5.81847554000000        401.911235288213     
  -7.85322480000000        5.98785146000000        426.001815182124     
  -7.52319888000000        5.76785178500000        823.346128261001     
  -7.36131881000000        5.94504263500000        770.500715838614     
  -7.27806809000000        5.73719150000000        882.550211459247     
  -6.87659269500000        5.85432717500000        1028.35186269470     
  -6.82408698000000        5.61452777500000        1198.80545896901     
  -7.06368230500000        5.67458295000000        1134.28975655319     
  -6.38459400000000        5.44013940000000        1545.46243382349     
  -6.61107158500000        5.53856678000000        1481.24149271148     
  -6.41051978500000        5.69584462000000        1497.40127255636     
  -5.98182430000000        5.45575945500000        1965.88023984444     
  -5.97941546000000        5.18460151500000        2131.42175302953     
  -6.18163336000000        5.32625930000000        2427.39523558372     
  -5.81153162500000        5.16747727500000        1806.26568016657     
  -5.69040935000000        5.22886017000000        1903.09934621356     
  -5.72233457500000        5.08223577500000        2094.52113723442     
  -5.90631746500000        4.87504659000000        2340.16788408867     
  -5.76471852500000        4.93905247000000        2164.77759618391     
  -5.82757914000000        4.79324618000000        2962.79199965021     
  -5.56174591500000        4.90753994000000        3067.15073853056     
  -5.64359625000000        5.00043536500000        2847.08893259115     
  -5.51936196500000        5.05072324500000        2833.36668059720     
  -5.47738496000000        4.82307418500000        3602.21617047462     
  -5.36208611500000        4.86026956500000        3743.90673277964     
  -5.40195944500000        4.72551593000000        3678.17200648544     
  -5.55001250000000        4.56454620500000        3762.09560494224     
  -5.44032470000000        4.59919149000000        4066.13372111211     
  -5.47307891000000        4.47541714500000        3972.50704160679     
  -5.25308200000000        4.53563988500000        4680.01241136014     
  -5.32502585500000        4.63638687000000        4559.34406132619     
  -5.21471674500000        4.66196432500000        5116.54210059563     
  -5.18135866500000        4.44939080500000        5401.70728996757     
  -5.07199926500000        4.46021416500000        7602.17183120032     
  -5.11058504000000        4.34838763000000        6773.88818759199     
  -5.10224362000000        4.15286924000000        5179.91680567933     
  -5.17420451000000        4.09540227500000        6636.40566368519     
  -5.19038312000000        4.16270796500000        5914.37411632280     
  -5.16918333500000        4.27886960000000        4983.69357977904     
  -5.24114422500000        4.22140263500000        6187.64919072691     
  -5.02267939000000        4.10631677500000        5822.58354548848     
  -5.05260884000000        4.14830926000000        6069.01802906261     
  -4.98922322000000        4.16906248500000        4501.76539197720     
  -4.90717565000000        4.14326249000000        5270.36291088487     
  -4.94421787500000        4.19296145500000        6086.87402084057     
  -4.89209975500000        4.20915394500000        5985.86847117105     
  -4.96518381000000        4.30903195000000        5563.44167508005     
  -4.97414732500000        4.23495394000000        4588.71784765623     
  -5.01018915500000        4.28513298000000        6368.62798912689     
  -5.05982393500000        4.28969296000000        5839.16970911513     
  -5.06878745000000        4.21561495000000        4254.13725113318     
  -4.86744575000000        4.09860412500000        6307.46089303789     
  -4.81715123500000        4.11111808000000        6898.61367941511     
  -4.82953945500000        4.05026722500000        5820.53334374801     
  -4.89059318500000        3.97879439500000        6180.21188964110     
  -4.83891464000000        3.99366985500000        7115.12652970154     
  -4.84967385500000        3.93471098000000        6361.49951533164     
  -4.74913022000000        3.95888358500000        6879.10285627512     
  -4.78862012500000        4.00618381000000        6786.38147587568     
  -4.73975503500000        4.01548095500000        8521.54259319578     
  -4.91094649000000        3.86133204500000        6113.43063041907     
  -4.85773126000000        3.87834981500000        7389.20255213880     
  -4.86732535000000        3.81984634000000        6857.89230552757     
  -4.92940391000000        3.74445072000000        6083.71667734609     
  -4.87557418000000        3.76129687500000        7417.34270328556     
  -4.88443751000000        3.70291902500000        6834.80385419014     
  -4.77429564000000        3.74082612000000        8699.79754998532     
  -4.82235895000000        3.77831464500000        7257.75464423485     
  -4.76604681000000        3.79937558500000        8820.32846735227     
  -4.64389311500000        3.80081070500000        5248.59772909521     
  -4.66865498500000        3.77199959500000        8560.48878032937     
  -4.69322163000000        3.79069817000000        6288.13449933631     
  -4.68995374500000        3.84723122500000        5806.23218235118     
  -4.71471561500000        3.81842011500000        8423.85937329655     
  -4.55326510000000        3.81007057500000        5993.99945653440     
  -4.57531234500000        3.78511807000000        8516.02006899418     
  -4.59727922500000        3.80706463500000        6046.66336878489     
  -4.59654667500000        3.85428061500000        5597.11199401479     
  -4.61859392000000        3.82932811000000        8027.90815481552     
  -4.63869167500000        3.89924981000000        5823.43072107545     
  -4.66465455000000        3.87574863000000        7953.19895165995     
  -4.68548485500000        3.89845435000000        6618.42180046948     
  -4.67989355500000        3.94506813000000        5822.63950996263     
  -4.70585643000000        3.92156695000000        6983.94218583553     
  -4.64316056500000        3.84802668500000        6478.47718446879     
  -4.75472152000000        3.91226980500000        8500.33415014640     
  -4.80605271500000        3.89322527500000        6988.51023569040     
  -4.76277892500000        3.85590864000000        8144.60620844662     
  -4.52192715500000        3.69241945000000        6720.61891474678     
  -4.54135639500000        3.73485306000000        10464.8029053897     
  -4.51186898000000        3.74569040000000        9983.89567121977     
  -4.46827401000000        3.70500696000000        5455.72709317410     
  -4.49038613000000        3.72517528000000        4866.63321251392     
  -4.46622040000000        3.72692545000000        6739.06582723024     
  -4.50981537000000        3.76760889000000        6566.72250240825     
  -4.54367903500000        3.64836090500000        6562.34261641302     
  -4.52301661000000        3.66129892500000        7227.00892951368     
  -4.51528107500000        3.62807772000000        5048.64158853386     
  -4.54382505500000        3.57864635500000        7182.75945454247     
  -4.51534560500000        3.59884188500000        5256.66554009045     
  -4.52322716000000        3.56234854000000        6987.32063416838     
  -4.47096559000000        3.59253319000000        5631.01789744130     
  -4.49468318000000        3.61177990500000        6054.49525857234     
  -4.47090106000000        3.62176902500000        6667.85684535930     
  -4.42340418000000        3.60959725500000        5956.13368298611     
  -4.44662504500000        3.62940395500000        6033.77657778696     
  -4.42284575500000        3.63647890000000        7327.26235860974     
  -4.37622614500000        3.62300177000000        6320.80230959677     
  -4.39928327500000        3.64207821500000        6108.96789988485     
  -4.37588453000000        3.64840778500000        7803.46216961641     
  -4.42152497000000        3.68712068000000        7195.28702629143     
  -4.42250414000000        3.66188491500000        5822.93426237567     
  -4.44508745000000        3.68152136500000        5686.69406345555     
  -4.46925318000000        3.67977119500000        7406.13231589864     
  -4.49352919500000        3.67213626500000        6661.52004508902     
  -4.47034263500000        3.64865067000000        5710.82480200948     
  -4.52902640500000        3.45910573500000        7219.75425607818     
  -4.55546643500000        3.48927971500000        9528.69997175312     
  -4.52526658000000        3.51197903000000        7666.86371350774     
  -4.47345857500000        3.48987368500000        5518.61627777722     
  -4.49396895500000        3.50741768500000        5150.16161677413     
  -4.46860098000000        3.51548632000000        5595.30035872623     
  -4.52040898500000        3.53759166500000        6248.39531677687     
  -4.53177522000000        3.34889810000000        7010.98846425708     
  -4.56057610500000        3.38070601500000        9583.85250039245     
  -4.53042537500000        3.40459850500000        7820.14902650978     
  -4.47557568000000        3.38163821500000        5416.13453483277     
  -4.49705486000000        3.39972606000000        5146.14065610314     
  -4.47100605000000        3.40857368500000        5528.41560073275     
  -4.52585574500000        3.43153397500000        6352.41928572184     
  -4.42499922000000        3.39918826000000        5469.18249300528     
  -4.44923715500000        3.41758767000000        5489.25943074914     
  -4.42470950500000        3.42629009000000        6394.82958545767     
  -4.37587770500000        3.41652249500000        5870.44918981788     
  -4.40046724000000        3.43445338000000        5736.49792588321     
  -4.37587337500000        3.44308519500000        6854.29420393198     
  -4.42427675500000        3.47947920000000        6507.50030618294     
  -4.42470517500000        3.45285279000000        5524.23244369846     
  -4.44851902000000        3.47131591000000        5520.61043876936     
  -4.47388699500000        3.46324727500000        6295.96912811967     
  -4.49565589000000        3.45423329000000        5303.75622923966     
  -4.47071633500000        3.43567551500000        4771.88866945022     
  -4.32692943000000        3.43361168000000        6250.19085089823     
  -4.35155317000000        3.45111108000000        6030.71382655810     
  -4.32719876000000        3.45956845000000        7323.55939776000     
  -4.27851948500000        3.45024449500000        6686.93586541002     
  -4.30310387000000        3.46739051500000        6441.16351035050     
  -4.27904833500000        3.47556596000000        7888.71640217400     
  -4.32792623500000        3.51053125000000        7662.17847506537     
  -4.32772761000000        3.48488991500000        6442.63016560848     
  -4.35202112500000        3.50270918500000        6245.93636854631     