TITLE = "Visualization of the solution"
VARIABLES = "x","y","Density","Momentum_x","Momentum_y","Energy","Pressure","Temperature","Mach","Pressure_Coefficient"
ZONE NODES= 13871, ELEMENTS= 27162, DATAPACKING=POINT, ZONETYPE=FEQUADRILATERAL
0.000000e+00	3.250000e+00	6.746670e+00	1.943376e+03	2.979694e+02	6.674888e+06	1.581616e+05	4.725320e+02	1.908087e+00	-2.320053e+16	
0.000000e+00	3.350654e+00	5.410420e+00	9.218629e+01	-1.772298e+02	4.985699e+06	1.239759e+05	4.594288e+02	2.439041e-01	-4.546194e+17	
0.000000e+00	3.454083e+00	7.054290e+00	-3.626883e+00	-3.280030e+02	6.469283e+06	1.595071e+05	4.571479e+02	3.104796e-01	-6.219795e+15	
0.000000e+00	3.560484e+00	6.951251e+00	-4.966582e+00	-2.629634e+02	6.317587e+06	1.558429e+05	4.532200e+02	2.537017e-01	-5.246169e+16	
0.000000e+00	3.670042e+00	7.032283e+00	-2.449701e+00	-2.394930e+02	6.355507e+06	1.566993e+05	4.507615e+02	2.291422e-01	-4.165475e+16	
0.000000e+00	3.782927e+00	7.069979e+00	-8.972565e-01	-2.202752e+02	6.373612e+06	1.571150e+05	4.496861e+02	2.099372e-01	-3.640797e+16	
0.000000e+00	3.899538e+00	7.085086e+00	-3.969813e-01	-2.039990e+02	6.382181e+06	1.573215e+05	4.493672e+02	1.940995e-01	-3.380182e+16	
0.000000e+00	4.019898e+00	7.092550e+00	-2.491825e-01	-1.899822e+02	6.390929e+06	1.575440e+05	4.495378e+02	1.805417e-01	-3.099409e+16	
0.000000e+00	4.143892e+00	7.097580e+00	-1.778077e-01	-1.780916e+02	6.398418e+06	1.577363e+05	4.497678e+02	1.690787e-01	-2.856743e+16	
0.000000e+00	4.271661e+00	7.103752e+00	-1.329015e-01	-1.683847e+02	6.405698e+06	1.579193e+05	4.499055e+02	1.597023e-01	-2.625875e+16	
0.000000e+00	4.403333e+00	7.111083e+00	-1.039958e-01	-1.603250e+02	6.412786e+06	1.580938e+05	4.499529e+02	1.518982e-01	-2.405596e+16	
0.000000e+00	4.539031e+00	7.118730e+00	-8.530140e-02	-1.533006e+02	6.419577e+06	1.582593e+05	4.499573e+02	1.450919e-01	-2.196800e+16	
0.000000e+00	4.678872e+00	7.125985e+00	-7.276064e-02	-1.468516e+02	6.425915e+06	1.584132e+05	4.499533e+02	1.388524e-01	-2.002512e+16	
0.000000e+00	4.822963e+00	7.132712e+00	-6.412589e-02	-1.407003e+02	6.431800e+06	1.585561e+05	4.499500e+02	1.329158e-01	-1.822178e+16	
0.000000e+00	4.971792e+00	7.138946e+00	-5.792294e-02	-1.346846e+02	6.437264e+06	1.586888e+05	4.499478e+02	1.271262e-01	-1.654667e+16	
0.000000e+00	5.125242e+00	7.144718e+00	-5.352438e-02	-1.287634e+02	6.442332e+06	1.588120e+05	4.499464e+02	1.214428e-01	-1.499281e+16	
0.000000e+00	5.283322e+00	7.150034e+00	-4.889795e-02	-1.229478e+02	6.447005e+06	1.589256e+05	4.499457e+02	1.158749e-01	-1.355914e+16	
0.000000e+00	5.446115e+00	7.154835e+00	-5.020893e-02	-1.172714e+02	6.451233e+06	1.590284e+05	4.499458e+02	1.104536e-01	-1.226114e+16	
0.000000e+00	5.613703e+00	7.159231e+00	-4.376610e-02	-1.117685e+02	6.455116e+06	1.591229e+05	4.499467e+02	1.052081e-01	-1.106851e+16	
0.000000e+00	5.787109e+00	7.163135e+00	-4.726187e-02	-1.064386e+02	6.458572e+06	1.592071e+05	4.499483e+02	1.001383e-01	-1.000604e+16	
0.000000e+00	5.965523e+00	7.166709e+00	-3.933675e-02	-1.013327e+02	6.461748e+06	1.592845e+05	4.499505e+02	9.528849e-02	-9.029849e+15	
0.000000e+00	6.149230e+00	7.169856e+00	-3.886249e-02	-9.645224e+01	6.464550e+06	1.593528e+05	4.499530e+02	9.066053e-02	-8.167531e+15	
0.000000e+00	6.339064e+00	7.172692e+00	-3.469761e-02	-9.179112e+01	6.467083e+06	1.594146e+05	4.499558e+02	8.624612e-02	-7.387854e+15	
0.000000e+00	6.534179e+00	7.175220e+00	-3.330313e-02	-8.737780e+01	6.469346e+06	1.594698e+05	4.499587e+02	8.207123e-02	-6.690960e+15	
0.000000e+00	6.735951e+00	7.177493e+00	-3.069948e-02	-8.319065e+01	6.471387e+06	1.595196e+05	4.499618e+02	7.811423e-02	-6.062159e+15	
0.000000e+00	6.943451e+00	7.179513e+00	-2.900970e-02	-7.924894e+01	6.473208e+06	1.595641e+05	4.499650e+02	7.439259e-02	-5.501317e+15	
0.000000e+00	7.157621e+00	7.181314e+00	-2.713539e-02	-7.552997e+01	6.474834e+06	1.596038e+05	4.499682e+02	7.088411e-02	-4.999904e+15	
0.000000e+00	7.378373e+00	7.182935e+00	-2.315957e-02	-7.202968e+01	6.476303e+06	1.596397e+05	4.499713e+02	6.758416e-02	-4.546997e+15	
0.000000e+00	7.605737e+00	7.184390e+00	-1.930153e-02	-6.873835e+01	6.477624e+06	1.596719e+05	4.499743e+02	6.448314e-02	-4.139989e+15	
0.000000e+00	7.840132e+00	7.185704e+00	-1.593560e-02	-6.563996e+01	6.478817e+06	1.597011e+05	4.499770e+02	6.156550e-02	-3.772115e+15	
0.000000e+00	8.081997e+00	7.186830e+00	-2.282142e-02	-6.271887e+01	6.479838e+06	1.597261e+05	4.499793e+02	5.881669e-02	-3.457094e+15	
0.000000e+00	8.331236e+00	7.187935e+00	-1.730146e-02	-5.996724e+01	6.480840e+06	1.597505e+05	4.499814e+02	5.622778e-02	-3.148383e+15	
0.000000e+00	8.588121e+00	7.188882e+00	-2.106044e-02	-5.737064e+01	6.481697e+06	1.597715e+05	4.499832e+02	5.378615e-02	-2.884206e+15	
0.000000e+00	8.852907e+00	7.189803e+00	-1.578753e-02	-5.491877e+01	6.482530e+06	1.597918e+05	4.499848e+02	5.148102e-02	-2.627885e+15	
0.000000e+00	9.125834e+00	7.190624e+00	-1.254240e-02	-5.260104e+01	6.483273e+06	1.598099e+05	4.499862e+02	4.930286e-02	-2.399443e+15	
0.000000e+00	9.407126e+00	7.191363e+00	-9.776992e-03	-5.040722e+01	6.483940e+06	1.598261e+05	4.499874e+02	4.724185e-02	-2.194076e+15	
0.000000e+00	9.697170e+00	7.192022e+00	-8.517053e-03	-4.832684e+01	6.484534e+06	1.598407e+05	4.499884e+02	4.528805e-02	-2.010939e+15	
0.000000e+00	9.996295e+00	7.192624e+00	-6.871355e-03	-4.635194e+01	6.485077e+06	1.598539e+05	4.499894e+02	4.343378e-02	-1.843756e+15	
0.000000e+00	1.030448e+01	7.193165e+00	-6.210280e-03	-4.447801e+01	6.485565e+06	1.598658e+05	4.499903e+02	4.167476e-02	-1.693535e+15	
0.000000e+00	1.062214e+01	7.193656e+00	-5.175779e-03	-4.269865e+01	6.486008e+06	1.598766e+05	4.499911e+02	4.000488e-02	-1.557121e+15	
0.000000e+00	1.094975e+01	7.194094e+00	-4.678906e-03	-4.100747e+01	6.486403e+06	1.598863e+05	4.499918e+02	3.841811e-02	-1.435402e+15	
0.000000e+00	1.128731e+01	7.194470e+00	-7.017311e-03	-3.940089e+01	6.486741e+06	1.598945e+05	4.499924e+02	3.691108e-02	-1.330991e+15	
0.000000e+00	1.163531e+01	7.194838e+00	-5.391056e-03	-3.787431e+01	6.487072e+06	1.599026e+05	4.499930e+02	3.547919e-02	-1.228928e+15	
0.000000e+00	1.199416e+01	7.195167e+00	-4.762683e-03	-3.642416e+01	6.487369e+06	1.599099e+05	4.499935e+02	3.411922e-02	-1.137356e+15	
0.000000e+00	1.236398e+01	7.195472e+00	-3.659899e-03	-3.504894e+01	6.487643e+06	1.599166e+05	4.499940e+02	3.282967e-02	-1.052898e+15	
0.000000e+00	1.274519e+01	7.195744e+00	-3.165795e-03	-3.374619e+01	6.487889e+06	1.599226e+05	4.499944e+02	3.160824e-02	-9.772719e+14	
0.000000e+00	1.313817e+01	7.195991e+00	-2.827060e-03	-3.251399e+01	6.488111e+06	1.599280e+05	4.499948e+02	3.045309e-02	-9.088473e+14	
0.000000e+00	1.354329e+01	7.196216e+00	-2.516171e-03	-3.135139e+01	6.488313e+06	1.599329e+05	4.499951e+02	2.936328e-02	-8.463066e+14	
0.000000e+00	1.396089e+01	7.196422e+00	-2.282449e-03	-3.025813e+01	6.488498e+06	1.599375e+05	4.499954e+02	2.833855e-02	-7.892740e+14	
0.000000e+00	1.439129e+01	7.196607e+00	-2.691262e-03	-2.923308e+01	6.488665e+06	1.599415e+05	4.499957e+02	2.737784e-02	-7.377930e+14	
0.000000e+00	1.483506e+01	7.196782e+00	-2.187817e-03	-2.827417e+01	6.488823e+06	1.599454e+05	4.499960e+02	2.647916e-02	-6.892583e+14	
0.000000e+00	1.529250e+01	7.196958e+00	-2.193426e-03	-2.737143e+01	6.488981e+06	1.599492e+05	4.499962e+02	2.563312e-02	-6.405581e+14	
0.000000e+00	1.576404e+01	7.197011e+00	-2.582494e-03	-2.652779e+01	6.489027e+06	1.599504e+05	4.499963e+02	2.484288e-02	-6.258354e+14	
0.000000e+00	1.625000e+01	7.197151e+00	-2.234632e-02	-2.567398e+01	6.489153e+06	1.599535e+05	4.499965e+02	2.404286e-02	-5.872176e+14	
1.000000e-01	3.250000e+00	7.524914e+00	2.036693e+03	4.625179e+02	7.453360e+06	1.767663e+05	4.751214e+02	1.818508e+00	2.115885e+17	
1.000000e-01	3.350654e+00	7.178535e+00	3.444502e+02	6.583368e+00	6.750188e+06	1.665214e+05	4.687163e+02	3.162753e-01	8.229932e+16	
1.000000e-01	3.454083e+00	6.987271e+00	-1.269092e+01	-1.836331e+02	6.391654e+06	1.577574e+05	4.563552e+02	1.760066e-01	-2.830159e+16	
1.000000e-01	3.560484e+00	7.023156e+00	-3.421690e+00	-2.236556e+02	6.367142e+06	1.570298e+05	4.522083e+02	2.138949e-01	-3.748355e+16	
1.000000e-01	3.670042e+00	7.050388e+00	-7.040524e+00	-2.266953e+02	6.365681e+06	1.569403e+05	4.503565e+02	2.165602e-01	-3.861326e+16	
1.000000e-01	3.782927e+00	7.062452e+00	-8.107520e+00	-2.163167e+02	6.365708e+06	1.569275e+05	4.496144e+02	2.065376e-01	-3.877427e+16	
1.000000e-01	3.899538e+00	7.077095e+00	-7.250916e+00	-2.039879e+02	6.375109e+06	1.571533e+05	4.493748e+02	1.944208e-01	-3.592505e+16	
1.000000e-01	4.019898e+00	7.088780e+00	-5.624725e+00	-1.917920e+02	6.387663e+06	1.574652e+05	4.495430e+02	1.824320e-01	-3.198880e+16	
1.000000e-01	4.143892e+00	7.097389e+00	-4.108563e+00	-1.806278e+02	6.397746e+06	1.577176e+05	4.497281e+02	1.715436e-01	-2.880328e+16	
1.000000e-01	4.271661e+00	7.105066e+00	-2.919427e+00	-1.708373e+02	6.406052e+06	1.579245e+05	4.498433e+02	1.620354e-01	-2.619280e+16	
1.000000e-01	4.403333e+00	7.112580e+00	-2.105404e+00	-1.623307e+02	6.413382e+06	1.581053e+05	4.498971e+02	1.537907e-01	-2.391124e+16	
1.000000e-01	4.539031e+00	7.119916e+00	-1.642561e+00	-1.547925e+02	6.420123e+06	1.582703e+05	4.499184e+02	1.464954e-01	-2.182817e+16	
1.000000e-01	4.678872e+00	7.126842e+00	-1.425004e+00	-1.478796e+02	6.426347e+06	1.584222e+05	4.499280e+02	1.398190e-01	-1.991114e+16	
1.000000e-01	4.822963e+00	7.133311e+00	-1.353220e+00	-1.413453e+02	6.432124e+06	1.585631e+05	4.499341e+02	1.335230e-01	-1.813401e+16	
1.000000e-01	4.971792e+00	7.139365e+00	-1.344551e+00	-1.350326e+02	6.437514e+06	1.586943e+05	4.499384e+02	1.274552e-01	-1.647718e+16	
1.000000e-01	5.125242e+00	7.145009e+00	-1.346506e+00	-1.288935e+02	6.442526e+06	1.588164e+05	4.499415e+02	1.215681e-01	-1.493701e+16	
1.000000e-01	5.283322e+00	7.150215e+00	-1.332494e+00	-1.229251e+02	6.447141e+06	1.589288e+05	4.499438e+02	1.158577e-01	-1.351901e+16	
1.000000e-01	5.446115e+00	7.154992e+00	-1.292043e+00	-1.171468e+02	6.451374e+06	1.590318e+05	4.499458e+02	1.103405e-01	-1.221827e+16	
1.000000e-01	5.613703e+00	7.159302e+00	-1.237525e+00	-1.115793e+02	6.455193e+06	1.591249e+05	4.499478e+02	1.050354e-01	-1.104413e+16	
1.000000e-01	5.787109e+00	7.163242e+00	-1.166264e+00	-1.062153e+02	6.458691e+06	1.592101e+05	4.499500e+02	9.993256e-02	-9.968840e+15	
1.000000e-01	5.965523e+00	7.166739e+00	-1.095555e+00	-1.010946e+02	6.461799e+06	1.592858e+05	4.499524e+02	9.506958e-02	-9.012842e+15	
1.000000e-01	6.149230e+00	7.169891e+00	-1.016933e+00	-9.621675e+01	6.464606e+06	1.593543e+05	4.499549e+02	9.044358e-02	-8.149100e+15	
1.000000e-01	6.339064e+00	7.172692e+00	-9.379193e-01	-9.156798e+01	6.467105e+06	1.594152e+05	4.499575e+02	8.604078e-02	-7.379729e+15	
1.000000e-01	6.534179e+00	7.175221e+00	-8.553667e-01	-8.717435e+01	6.469366e+06	1.594704e+05	4.499602e+02	8.188391e-02	-6.683511e+15	
1.000000e-01	6.735951e+00	7.177487e+00	-7.746868e-01	-8.300997e+01	6.471397e+06	1.595199e+05	4.499630e+02	7.794792e-02	-6.058252e+15	
1.000000e-01	6.943451e+00	7.179515e+00	-6.962960e-01	-7.909168e+01	6.473220e+06	1.595644e+05	4.499659e+02	7.424774e-02	-5.496621e+15	
1.000000e-01	7.157621e+00	7.181325e+00	-6.233035e-01	-7.539490e+01	6.474851e+06	1.596043e+05	4.499688e+02	7.075961e-02	-4.994160e+15	
1.000000e-01	7.378373e+00	7.182950e+00	-5.557648e-01	-7.191538e+01	6.476321e+06	1.596401e+05	4.499716e+02	6.747876e-02	-4.541395e+15	
1.000000e-01	7.605737e+00	7.184405e+00	-4.947326e-01	-6.864343e+01	6.477639e+06	1.596723e+05	4.499744e+02	6.439563e-02	-4.135211e+15	
1.000000e-01	7.840132e+00	7.185716e+00	-4.395893e-01	-6.556206e+01	6.478827e+06	1.597014e+05	4.499770e+02	6.149372e-02	-3.768847e+15	
1.000000e-01	8.081997e+00	7.186944e+00	-3.840506e-01	-6.265557e+01	6.479942e+06	1.597286e+05	4.499794e+02	5.875751e-02	-3.425603e+15	
1.000000e-01	8.331236e+00	7.188004e+00	-3.430912e-01	-5.991388e+01	6.480902e+06	1.597520e+05	4.499814e+02	5.617814e-02	-3.129692e+15	
1.000000e-01	8.588121e+00	7.189007e+00	-3.016202e-01	-5.732599e+01	6.481811e+06	1.597742e+05	4.499833e+02	5.374413e-02	-2.849912e+15	
1.000000e-01	8.852907e+00	7.189877e+00	-2.714679e-01	-5.488013e+01	6.482597e+06	1.597934e+05	4.499848e+02	5.144491e-02	-2.607720e+15	
1.000000e-01	9.125834e+00	7.190672e+00	-2.440703e-01	-5.256749e+01	6.483315e+06	1.598109e+05	4.499862e+02	4.927163e-02	-2.386645e+15	
1.000000e-01	9.407126e+00	7.191392e+00	-2.193491e-01	-5.037813e+01	6.483965e+06	1.598267e+05	4.499874e+02	4.721485e-02	-2.186423e+15	
1.000000e-01	9.697170e+00	7.192049e+00	-1.963311e-01	-4.830168e+01	6.484558e+06	1.598412e+05	4.499884e+02	4.526468e-02	-2.003717e+15	
1.000000e-01	9.996295e+00	7.192643e+00	-1.759782e-01	-4.632991e+01	6.485094e+06	1.598543e+05	4.499894e+02	4.341334e-02	-1.838628e+15	
1.000000e-01	1.030448e+01	7.193186e+00	-1.571204e-01	-4.445826e+01	6.485583e+06	1.598662e+05	4.499903e+02	4.165640e-02	-1.687980e+15	
1.000000e-01	1.062214e+01	7.193672e+00	-1.403431e-01	-4.268025e+01	6.486022e+06	1.598770e+05	4.499911e+02	3.998776e-02	-1.552735e+15	
1.000000e-01	1.094975e+01	7.194111e+00	-1.247912e-01	-4.098979e+01	6.486418e+06	1.598866e+05	4.499918e+02	3.840163e-02	-1.430854e+15	
1.000000e-01	1.128731e+01	7.194518e+00	-1.088067e-01	-3.938367e+01	6.486785e+06	1.598956e+05	4.499924e+02	3.689485e-02	-1.317755e+15	
1.000000e-01	1.163531e+01	7.194870e+00	-9.683519e-02	-3.785697e+01	6.487102e+06	1.599033e+05	4.499930e+02	3.546291e-02	-1.220064e+15	
1.000000e-01	1.199416e+01	7.195196e+00	-8.495373e-02	-3.640660e+01	6.487395e+06	1.599105e+05	4.499935e+02	3.410273e-02	-1.129458e+15	
1.000000e-01	1.236398e+01	7.195491e+00	-7.415648e-02	-3.503071e+01	6.487661e+06	1.599170e+05	4.499940e+02	3.281258e-02	-1.047650e+15	
1.000000e-01	1.274519e+01	7.195761e+00	-6.352045e-02	-3.372690e+01	6.487904e+06	1.599229e+05	4.499944e+02	3.159016e-02	-9.727032e+14	
1.000000e-01	1.313817e+01	7.196008e+00	-5.305191e-02	-3.249332e+01	6.488126e+06	1.599283e+05	4.499948e+02	3.043369e-02	-9.042147e+14	
1.000000e-01	1.354329e+01	7.196233e+00	-4.278856e-02	-3.132887e+01	6.488329e+06	1.599333e+05	4.499951e+02	2.934214e-02	-8.416031e+14	
1.000000e-01	1.396089e+01	7.196439e+00	-3.268634e-02	-3.023298e+01	6.488515e+06	1.599378e+05	4.499955e+02	2.831494e-02	-7.843790e+14	
1.000000e-01	1.439129e+01	7.196631e+00	-2.270094e-02	-2.920430e+01	6.488687e+06	1.599421e+05	4.499957e+02	2.735081e-02	-7.310941e+14	
1.000000e-01	1.483506e+01	7.196800e+00	-1.465172e-02	-2.824057e+01	6.488839e+06	1.599458e+05	4.499960e+02	2.644764e-02	-6.844279e+14	
1.000000e-01	1.529250e+01	7.196971e+00	-7.552259e-03	-2.733444e+01	6.488993e+06	1.599495e+05	4.499963e+02	2.559843e-02	-6.369285e+14	
1.000000e-01	1.576404e+01	7.197039e+00	-3.329504e-03	-2.649130e+01	6.489053e+06	1.599510e+05	4.499964e+02	2.480862e-02	-6.180582e+14	
1.000000e-01	1.625000e+01	7.197435e+00	1.081311e-02	-2.563089e+01	6.489415e+06	1.599597e+05	4.499970e+02	2.400157e-02	-5.081511e+14	
6.435988e+01	6.259670e-01	7.278046e+00	1.541048e+03	-5.173006e+00	7.264967e+06	1.756385e+05	4.869725e+02	1.367158e+00	1.973558e+17	
-7.886259e+00	2.153292e-01	3.568690e+01	1.272121e+03	-5.034058e+00	3.558906e+07	7.767211e+05	4.995334e+02	2.599799e-01	7.782939e+18	
-7.799415e+00	5.660924e+00	3.672930e+01	5.365153e+02	-4.233304e+01	3.663485e+07	7.962958e+05	4.999612e+02	1.073828e-01	8.029969e+18	
6.265452e+00	7.945807e+00	7.190251e+00	-1.338366e+01	-5.402274e+01	6.481621e+06	1.597673e+05	4.498934e+02	5.217470e-02	-2.936715e+15	
5.898018e+00	8.270389e+00	7.191318e+00	-1.225057e+01	-5.281512e+01	6.482877e+06	1.597981e+05	4.499146e+02	5.081748e-02	-2.548578e+15	
5.891380e+00	7.677871e+00	7.189149e+00	-1.300492e+01	-5.820570e+01	6.480697e+06	1.597446e+05	4.498959e+02	5.591849e-02	-3.222664e+15	
5.822872e+00	7.974326e+00	7.190306e+00	-1.253454e+01	-5.574841e+01	6.481807e+06	1.597717e+05	4.499020e+02	5.356518e-02	-2.881425e+15	
5.878238e+00	8.661286e+00	7.192149e+00	-1.146063e+01	-4.953317e+01	6.483928e+06	1.598243e+05	4.499374e+02	4.764697e-02	-2.217187e+15	
5.481888e+00	8.776190e+00	7.192159e+00	-1.018936e+01	-4.927764e+01	6.484229e+06	1.598321e+05	4.499578e+02	4.715684e-02	-2.118328e+15	
6.359039e+00	8.427684e+00	7.191921e+00	-1.294581e+01	-4.986370e+01	6.483314e+06	1.598087e+05	4.499087e+02	4.828281e-02	-2.413705e+15	
5.514700e+00	8.470875e+00	7.191610e+00	-1.086780e+01	-5.185249e+01	6.483529e+06	1.598146e+05	4.499422e+02	4.965336e-02	-2.339718e+15	
6.916643e+00	8.097181e+00	7.191952e+00	-1.376886e+01	-4.944199e+01	6.483161e+06	1.598047e+05	4.498961e+02	4.810207e-02	-2.464118e+15	
6.256206e+00	7.560613e+00	7.188983e+00	-1.337832e+01	-5.714691e+01	6.480746e+06	1.597464e+05	4.499101e+02	5.502911e-02	-3.200479e+15	
5.513914e+00	8.147435e+00	7.190793e+00	-1.142855e+01	-5.485121e+01	6.482554e+06	1.597903e+05	4.499241e+02	5.251884e-02	-2.646141e+15	
5.500948e+00	7.493902e+00	7.188664e+00	-1.238792e+01	-6.142949e+01	6.480122e+06	1.597300e+05	4.498844e+02	5.875958e-02	-3.407455e+15	
5.509448e+00	7.834300e+00	7.189896e+00	-1.194760e+01	-5.795441e+01	6.481498e+06	1.597640e+05	4.499050e+02	5.547378e-02	-2.977793e+15	
5.388246e+00	7.096705e+00	7.187825e+00	-1.216338e+01	-6.572601e+01	6.479022e+06	1.597022e+05	4.498580e+02	6.268424e-02	-3.758493e+15	
5.272761e+00	9.920835e+00	7.193796e+00	-7.158100e+00	-4.157529e+01	6.486115e+06	1.598792e+05	4.499900e+02	3.952482e-02	-1.524468e+15	
5.161576e+00	9.681700e+00	7.193363e+00	-7.506732e+00	-4.314044e+01	6.485694e+06	1.598689e+05	4.499872e+02	4.102795e-02	-1.654687e+15	
5.690362e+00	9.111173e+00	7.193015e+00	-9.952195e+00	-4.634586e+01	6.485056e+06	1.598524e+05	4.499630e+02	4.441719e-02	-1.862297e+15	
5.164745e+00	8.994043e+00	7.192353e+00	-8.983011e+00	-4.787336e+01	6.484625e+06	1.598423e+05	4.499739e+02	4.564483e-02	-1.989991e+15	
5.200691e+00	9.370476e+00	7.192918e+00	-8.274632e+00	-4.512412e+01	6.485211e+06	1.598569e+05	4.499805e+02	4.298706e-02	-1.806023e+15	
6.296192e+00	8.917246e+00	7.193013e+00	-1.180336e+01	-4.644901e+01	6.484693e+06	1.598430e+05	4.499378e+02	4.490853e-02	-1.981687e+15	
5.134532e+00	8.649102e+00	7.191584e+00	-9.534831e+00	-5.066044e+01	6.483825e+06	1.598226e+05	4.499651e+02	4.831267e-02	-2.239344e+15	
6.867670e+00	8.681510e+00	7.193142e+00	-1.320122e+01	-4.601152e+01	6.484471e+06	1.598370e+05	4.499144e+02	4.485526e-02	-2.057063e+15	
6.677803e+00	7.619438e+00	7.190354e+00	-1.349556e+01	-5.391915e+01	6.482052e+06	1.597782e+05	4.499168e+02	5.210360e-02	-2.798531e+15	
5.956887e+00	7.262754e+00	7.188128e+00	-1.268921e+01	-6.152310e+01	6.480222e+06	1.597335e+05	4.499248e+02	5.890337e-02	-3.362614e+15	
5.154203e+00	8.012482e+00	7.190224e+00	-1.061001e+01	-5.649052e+01	6.482183e+06	1.597815e+05	4.499330e+02	5.388067e-02	-2.757725e+15	
5.151162e+00	8.325061e+00	7.190930e+00	-1.009929e+01	-5.349700e+01	6.483055e+06	1.598033e+05	4.499511e+02	5.102843e-02	-2.482000e+15	
5.344329e+00	6.695192e+00	7.187603e+00	-1.015087e+01	-6.912934e+01	6.478469e+06	1.596875e+05	4.498315e+02	6.552854e-02	-3.943162e+15	
5.007233e+00	6.887620e+00	7.188339e+00	-1.185802e+01	-6.813893e+01	6.479145e+06	1.597038e+05	4.498329e+02	6.485840e-02	-3.737631e+15	
5.139317e+00	7.701623e+00	7.189531e+00	-1.112384e+01	-5.970376e+01	6.481241e+06	1.597577e+05	4.499091e+02	5.693695e-02	-3.057406e+15	
4.982216e+00	7.147504e+00	7.188751e+00	-1.173982e+01	-6.559944e+01	6.479907e+06	1.597234e+05	4.498617e+02	6.248829e-02	-3.491113e+15	
5.087146e+00	7.391361e+00	7.189178e+00	-1.155127e+01	-6.304321e+01	6.480551e+06	1.597398e+05	4.498813e+02	6.009336e-02	-3.283609e+15	
7.565344e+00	7.925801e+00	7.193503e+00	-1.348976e+01	-4.686677e+01	6.484907e+06	1.598474e+05	4.499216e+02	4.569758e-02	-1.925192e+15	
7.474154e+00	8.446668e+00	7.193689e+00	-1.375333e+01	-4.458267e+01	6.484827e+06	1.598454e+05	4.499055e+02	4.371680e-02	-1.950929e+15	
4.963963e+00	6.578446e+00	7.188438e+00	-1.084172e+01	-7.043916e+01	6.478687e+06	1.596913e+05	4.497935e+02	6.683529e-02	-3.896214e+15	
8.126440e+00	8.190400e+00	7.194655e+00	-1.350497e+01	-4.274656e+01	6.485865e+06	1.598707e+05	4.499179e+02	4.199910e-02	-1.631546e+15	
4.893242e+00	6.307220e+00	7.184833e+00	-6.269418e+00	-7.129349e+01	6.475359e+06	1.596119e+05	4.497875e+02	6.714955e-02	-4.898086e+15	
9.130094e+00	8.552040e+00	7.195529e+00	-1.312507e+01	-3.705731e+01	6.486832e+06	1.598949e+05	4.499326e+02	3.682621e-02	-1.326161e+15	
4.910636e+00	9.903789e+00	7.193533e+00	-6.649690e+00	-4.210169e+01	6.485918e+06	1.598745e+05	4.499925e+02	3.993514e-02	-1.583410e+15	
5.601814e+00	9.646664e+00	7.193616e+00	-8.393897e+00	-4.280166e+01	6.485819e+06	1.598717e+05	4.499801e+02	4.086602e-02	-1.619500e+15	
4.809253e+00	9.576334e+00	7.192983e+00	-7.125177e+00	-4.417102e+01	6.485395e+06	1.598617e+05	4.499898e+02	4.192317e-02	-1.745214e+15	
6.186961e+00	9.419229e+00	7.193791e+00	-1.017702e+01	-4.323967e+01	6.485739e+06	1.598691e+05	4.499633e+02	4.161939e-02	-1.651408e+15	
4.699773e+00	8.842766e+00	7.191695e+00	-8.243439e+00	-4.933915e+01	6.484158e+06	1.598312e+05	4.499820e+02	4.688004e-02	-2.129801e+15	
4.759378e+00	9.221735e+00	7.192410e+00	-7.710428e+00	-4.654931e+01	6.484840e+06	1.598480e+05	4.499859e+02	4.421450e-02	-1.917882e+15	
6.769574e+00	9.209930e+00	7.193916e+00	-1.185132e+01	-4.304947e+01	6.485587e+06	1.598649e+05	4.499448e+02	4.183495e-02	-1.704382e+15	
6.452064e+00	7.304295e+00	7.188292e+00	-1.249224e+01	-5.754255e+01	6.480928e+06	1.597524e+05	4.499658e+02	5.520950e-02	-3.125138e+15	
4.769394e+00	8.490574e+00	7.191006e+00	-8.907338e+00	-5.212761e+01	6.483424e+06	1.598130e+05	4.499727e+02	4.956558e-02	-2.359842e+15	
4.792125e+00	8.182353e+00	7.190318e+00	-9.377528e+00	-5.482554e+01	6.482656e+06	1.597939e+05	4.499610e+02	5.213790e-02	-2.600654e+15	
5.808635e+00	6.798645e+00	7.186001e+00	-9.329759e+00	-6.566888e+01	6.478698e+06	1.596973e+05	4.499497e+02	6.221073e-02	-3.819904e+15	
4.764880e+00	7.591922e+00	7.189272e+00	-1.033007e+01	-6.059691e+01	6.481199e+06	1.597570e+05	4.499220e+02	5.763171e-02	-3.066808e+15	
4.789901e+00	7.884450e+00	7.189724e+00	-9.823303e+00	-5.764827e+01	6.481899e+06	1.597749e+05	4.499440e+02	5.482192e-02	-2.841145e+15	
7.172662e+00	7.643055e+00	7.191592e+00	-1.307801e+01	-5.061710e+01	6.483476e+06	1.598134e+05	4.499400e+02	4.899770e-02	-2.355109e+15	
7.361966e+00	8.999655e+00	7.194170e+00	-1.303175e+01	-4.213957e+01	6.485587e+06	1.598645e+05	4.499292e+02	4.132617e-02	-1.709390e+15	
4.655796e+00	6.760626e+00	7.188112e+00	-1.241454e+01	-6.863260e+01	6.479017e+06	1.597008e+05	4.498378e+02	6.540702e-02	-3.775875e+15	
5.242570e+00	6.350818e+00	7.183647e+00	-3.096424e+00	-7.033860e+01	6.475742e+06	1.596243e+05	4.498889e+02	6.606170e-02	-4.741688e+15	
4.682744e+00	7.044089e+00	7.188535e+00	-1.169111e+01	-6.618255e+01	6.479838e+06	1.597218e+05	4.498700e+02	6.301981e-02	-3.510321e+15	
4.718940e+00	7.313869e+00	7.188815e+00	-1.091216e+01	-6.345714e+01	6.480462e+06	1.597381e+05	4.498976e+02	6.037244e-02	-3.304984e+15	
7.975486e+00	8.797099e+00	7.194741e+00	-1.351785e+01	-4.061181e+01	6.485993e+06	1.598742e+05	4.499223e+02	4.009968e-02	-1.587564e+15	
7.966599e+00	7.780439e+00	7.192673e+00	-1.251924e+01	-4.538480e+01	6.484562e+06	1.598404e+05	4.499504e+02	4.411767e-02	-2.014373e+15	
4.598957e+00	6.155784e+00	7.185082e+00	-4.745322e+00	-7.023540e+01	6.476785e+06	1.596486e+05	4.498717e+02	6.603988e-02	-4.434921e+15	
4.616695e+00	6.466336e+00	7.189228e+00	-1.198089e+01	-7.041523e+01	6.479635e+06	1.597143e+05	4.498098e+02	6.697556e-02	-3.606076e+15	
8.596363e+00	8.642192e+00	7.195560e+00	-1.345054e+01	-3.874760e+01	6.486807e+06	1.598940e+05	4.499283e+02	3.842132e-02	-1.337935e+15	
8.834813e+00	8.144566e+00	7.195242e+00	-1.282061e+01	-3.978203e+01	6.486650e+06	1.598904e+05	4.499370e+02	3.915426e-02	-1.383178e+15	
9.466684e+00	8.206329e+00	7.195236e+00	-1.232033e+01	-3.698777e+01	6.486673e+06	1.598914e+05	4.499400e+02	3.652073e-02	-1.370463e+15	
4.562633e+00	5.810239e+00	7.174981e+00	2.547316e+01	-6.315700e+01	6.475513e+06	1.596350e+05	4.504167e+02	6.393101e-02	-4.605968e+15	
1.001330e+01	8.300361e+00	7.195538e+00	-1.187731e+01	-3.462779e+01	6.487085e+06	1.599018e+05	4.499506e+02	3.429163e-02	-1.239150e+15	
4.681451e+00	1.081945e+01	7.194570e+00	-4.864240e+00	-3.780706e+01	6.486888e+06	1.598983e+05	4.499968e+02	3.570924e-02	-1.283321e+15	
4.686503e+00	1.051041e+01	7.194224e+00	-5.330600e+00	-3.920821e+01	6.486577e+06	1.598907e+05	4.499963e+02	3.706953e-02	-1.378980e+15	
5.088012e+00	1.026663e+01	7.194124e+00	-6.192681e+00	-3.992615e+01	6.486469e+06	1.598880e+05	4.499948e+02	3.785202e-02	-1.413255e+15	
5.592300e+00	1.011436e+01	7.194141e+00	-7.193418e+00	-4.006527e+01	6.486422e+06	1.598867e+05	4.499903e+02	3.813541e-02	-1.429713e+15	
4.500436e+00	9.826482e+00	7.193249e+00	-6.217420e+00	-4.298808e+01	6.485690e+06	1.598690e+05	4.499941e+02	4.069718e-02	-1.652676e+15	
4.622822e+00	1.016184e+01	7.193781e+00	-5.818690e+00	-4.101892e+01	6.486174e+06	1.598809e+05	4.499953e+02	3.881500e-02	-1.503346e+15	
6.094534e+00	9.916708e+00	7.194222e+00	-8.507488e+00	-4.036201e+01	6.486371e+06	1.598852e+05	4.499815e+02	3.864408e-02	-1.449197e+15	
4.355389e+00	9.091699e+00	7.192019e+00	-7.232258e+00	-4.773651e+01	6.484557e+06	1.598412e+05	4.499902e+02	4.524526e-02	-2.003442e+15	
4.310300e+00	9.465259e+00	7.192612e+00	-6.555230e+00	-4.533138e+01	6.485115e+06	1.598550e+05	4.499930e+02	4.291917e-02	-1.830034e+15	
6.652216e+00	9.720993e+00	7.194421e+00	-1.003224e+01	-4.031827e+01	6.486383e+06	1.598851e+05	4.499698e+02	3.892353e-02	-1.450415e+15	
4.389566e+00	8.614793e+00	7.190945e+00	-7.986402e+00	-5.119303e+01	6.483542e+06	1.598164e+05	4.499852e+02	4.856149e-02	-2.317179e+15	
4.306691e+00	8.844789e+00	7.191463e+00	-7.527592e+00	-4.950881e+01	6.484051e+06	1.598289e+05	4.499890e+02	4.693240e-02	-2.159321e+15	
4.427513e+00	8.332901e+00	7.190399e+00	-8.412992e+00	-5.343701e+01	6.482993e+06	1.598028e+05	4.499801e+02	5.070526e-02	-2.489010e+15	
6.366093e+00	6.911853e+00	7.187157e+00	-8.009516e+00	-6.011103e+01	6.481741e+06	1.597751e+05	4.500921e+02	5.685898e-02	-2.838364e+15	
6.967036e+00	7.174547e+00	7.188679e+00	-9.474368e+00	-5.402861e+01	6.482782e+06	1.598004e+05	4.500725e+02	5.142163e-02	-2.519209e+15	
7.231843e+00	9.529660e+00	7.194620e+00	-1.144908e+01	-3.978146e+01	6.486383e+06	1.598847e+05	4.499574e+02	3.878118e-02	-1.454884e+15	
4.437682e+00	8.048908e+00	7.189761e+00	-8.797763e+00	-5.586468e+01	6.482316e+06	1.597860e+05	4.499716e+02	5.301428e-02	-2.701010e+15	
5.627907e+00	6.459004e+00	7.180127e+00	-2.303284e+00	-6.762228e+01	6.474466e+06	1.595985e+05	4.500222e+02	6.350555e-02	-5.066752e+15	
4.403055e+00	7.488719e+00	7.188699e+00	-9.825712e+00	-6.106591e+01	6.480931e+06	1.597510e+05	4.499389e+02	5.799147e-02	-3.141910e+15	
4.428036e+00	7.766917e+00	7.189194e+00	-9.230914e+00	-5.842412e+01	6.481628e+06	1.597687e+05	4.499579e+02	5.545267e-02	-2.918958e+15	
7.700410e+00	7.408601e+00	7.191092e+00	-9.980563e+00	-4.835775e+01	6.484489e+06	1.598410e+05	4.500429e+02	4.627482e-02	-2.006393e+15	
7.828522e+00	9.344209e+00	7.194951e+00	-1.244090e+01	-3.870446e+01	6.486526e+06	1.598879e+05	4.499470e+02	3.808540e-02	-1.414707e+15	
4.371199e+00	7.213650e+00	7.188347e+00	-1.075423e+01	-6.371415e+01	6.480278e+06	1.597342e+05	4.499139e+02	6.058772e-02	-3.354713e+15	
4.339060e+00	6.934923e+00	7.188223e+00	-1.217554e+01	-6.628348e+01	6.479745e+06	1.597200e+05	4.498829e+02	6.319513e-02	-3.533773e+15	
5.022953e+00	5.981680e+00	7.166621e+00	2.105185e+01	-6.608312e+01	6.466110e+06	1.594072e+05	4.502858e+02	6.519253e-02	-7.481108e+15	
4.303675e+00	6.646394e+00	7.187831e+00	-1.376224e+01	-6.840505e+01	6.479018e+06	1.597013e+05	4.498554e+02	6.543560e-02	-3.769316e+15	
8.436756e+00	9.172992e+00	7.195447e+00	-1.288461e+01	-3.725321e+01	6.486894e+06	1.598967e+05	4.499420e+02	3.692498e-02	-1.304061e+15	
8.438272e+00	7.608884e+00	7.193237e+00	-1.030250e+01	-4.362698e+01	6.485826e+06	1.598724e+05	4.500037e+02	4.200060e-02	-1.610682e+15	
9.042206e+00	9.011081e+00	7.195840e+00	-1.291381e+01	-3.576065e+01	6.487220e+06	1.599045e+05	4.499406e+02	3.561404e-02	-1.204569e+15	
9.215460e+00	7.680816e+00	7.193526e+00	-9.413541e+00	-3.970641e+01	6.486010e+06	1.598772e+05	4.500001e+02	3.823283e-02	-1.549789e+15	
4.264518e+00	6.344078e+00	7.189185e+00	-1.378099e+01	-6.974403e+01	6.480197e+06	1.597289e+05	4.498517e+02	6.665870e-02	-3.420711e+15	
4.216009e+00	6.020163e+00	7.184928e+00	-6.127015e+00	-6.859062e+01	6.478904e+06	1.597040e+05	4.500294e+02	6.459175e-02	-3.735366e+15	
4.500768e+00	5.430823e+00	7.154966e+00	1.216471e+02	-4.035280e+01	6.481971e+06	1.598177e+05	4.520660e+02	1.204005e-01	-2.300916e+15	
4.143841e+00	5.664342e+00	7.174781e+00	2.813752e+01	-6.035780e+01	6.478837e+06	1.597217e+05	4.506611e+02	6.249988e-02	-3.512701e+15	
9.675667e+00	8.771553e+00	7.196017e+00	-1.266879e+01	-3.444217e+01	6.487385e+06	1.599087e+05	4.499415e+02	3.437424e-02	-1.152755e+15	
9.894741e+00	7.802068e+00	7.193816e+00	-9.244848e+00	-3.642708e+01	6.486118e+06	1.598799e+05	4.499907e+02	3.521019e-02	-1.515573e+15	
1.039029e+01	8.691764e+00	7.196391e+00	-1.187425e+01	-3.232959e+01	6.488011e+06	1.599244e+05	4.499623e+02	3.225775e-02	-9.536554e+14	
4.032794e+00	5.246307e+00	7.115424e+00	1.557191e+02	-2.749831e+01	6.460583e+06	1.593222e+05	4.530311e+02	1.491692e-01	-8.554326e+15	
1.060387e+01	8.043549e+00	7.195746e+00	-9.744952e+00	-3.313252e+01	6.487953e+06	1.599241e+05	4.499985e+02	3.234774e-02	-9.576437e+14	
1.106121e+01	8.612944e+00	7.196739e+00	-1.077396e+01	-3.058850e+01	6.488682e+06	1.599414e+05	4.499878e+02	3.037207e-02	-7.397966e+14	
3.758265e+00	4.982315e+00	7.070763e+00	2.889735e+02	9.776332e+00	6.460357e+06	1.592908e+05	4.555769e+02	2.735756e-01	-8.950166e+15	
1.138864e+01	8.067362e+00	7.195955e+00	-8.373326e+00	-3.076115e+01	6.488719e+06	1.599438e+05	4.500394e+02	2.985818e-02	-7.086808e+14	
1.171051e+01	8.599166e+00	7.196627e+00	-9.572663e+00	-2.928024e+01	6.488809e+06	1.599451e+05	4.500040e+02	2.884995e-02	-6.934492e+14	
3.687886e+00	4.681981e+00	6.985028e+00	6.231883e+02	8.219041e+01	6.480875e+06	1.593983e+05	4.610232e+02	5.978905e-01	-7.593417e+15	
1.591685e+01	8.316514e+00	7.192813e+00	-8.982374e-01	-3.143547e+01	6.488027e+06	1.599319e+05	4.501876e+02	2.946053e-02	-8.599573e+14	
1.541168e+01	8.292810e+00	7.193339e+00	-1.587198e+00	-3.108325e+01	6.488460e+06	1.599421e+05	4.501849e+02	2.915454e-02	-7.304467e+14	