 TITLE = "Adapted Mesh"
 VARIABLES = "X", "Y"
 ZONE T = "Domain", N=        8400 E=       16396 
 DATAPACKING=POINT, ZONETYPE=FEQUADRILATERAL
  -2.10000000000000        3.00000000000000     
  -2.10000000000000        3.10069025127545     
  -2.10000000000000        3.20405750283552     
  -2.10000000000000        3.31030393476383     
  -2.10000000000000        3.41961685800252     
  -2.10000000000000        3.53227920422006     
  -2.10000000000000        3.64882315202082     
  -2.10000000000000        3.76876964884445     
  -2.10000000000000        3.89227008106708     
  -2.10000000000000        4.01946611341300     
  -2.10000000000000        4.15049062796452     
  -2.10000000000000        4.28546850220516     
  -2.10000000000000        4.42451731060594     
  -2.10000000000000        4.56774795142357     
  -2.10000000000000        4.71526519818089     
  -2.10000000000000        4.86716819463649     
  -2.10000000000000        5.02395803683984     
  -2.10000000000000        5.18557331220361     
  -2.10000000000000        5.35192283788675     
  -2.10000000000000        5.52308341431143     
  -2.10000000000000        5.69963374077613     
  -2.10000000000000        5.88166415007517     
  -2.10000000000000        6.06877960659704     
  -2.10000000000000        6.26205545693665     
  -2.10000000000000        6.46079380560404     
  -2.10000000000000        6.66584698833383     
  -2.10000000000000        6.87669579439225     
  -2.10000000000000        7.09444547647180     
  -2.10000000000000        7.31846081865042     
  -2.10000000000000        7.54910460981467     
  -2.10000000000000        7.78713592357796     
  -2.10000000000000        8.03223753476975     
  -2.10000000000000        8.28469508523349     
  -2.10000000000000        8.54477642102270     
  -2.10000000000000        8.81273320551595     
  -2.10000000000000        9.08880234362241     
  -2.10000000000000        9.37320724316665     
  -2.10000000000000        9.66615893706459     
  -2.10000000000000        9.96796543512234     
  -2.10000000000000        10.2791454374489     
  -2.10000000000000        10.5995270038615     
  -2.10000000000000        10.9296704514065     
  -2.10000000000000        11.2697766836192     
  -2.10000000000000        11.6202444308549     
  -2.10000000000000        11.9811492753098     
  -2.10000000000000        12.3530958920075     
  -2.10000000000000        12.7363474259071     
  -2.10000000000000        13.1311469763581     
  -2.10000000000000        13.5378652718700     
  -2.10000000000000        13.9568516037717     
  -2.10000000000000        14.3885469335601     
  -2.10000000000000        14.8334197484996     
  -2.10000000000000        15.2915911294826     
  -2.10000000000000        15.7637439568589     
  0.000000000000000E+000   16.2500000000000     
  -2.00000000000000        2.99999999535898     
  -2.01532982086266        3.10430440289082     
  -2.00000000000000        3.20405749819450     
  -2.00000000000000        3.31030393012281     
  -2.00000000000000        3.41961685336150     
  -2.00000000000000        3.53227919957904     
  -2.00000000000000        3.64882314737980     
  -2.00000000000000        3.76876964420343     
  -2.00000000000000        3.89227007642606     
  -2.00000000000000        4.01946610877198     
  -2.00000000000000        4.15049062332350     
  -2.00000000000000        4.28546849756414     
  -2.00000000000000        4.42451730596492     
  -2.00000000000000        4.56774794678255     
  -2.00000000000000        4.71526519353987     
  -2.00000000000000        4.86716818999547     
  -2.00000000000000        5.02395803219881     
  -2.00000000000000        5.18557330756259     
  -2.00000000000000        5.35192283324573     
  -2.00000000000000        5.52308340967041     
  -2.00000000000000        5.69963373613511     
  -2.00000000000000        5.88166414543415     
  -2.00000000000000        6.06877960195602     
  -2.00000000000000        6.26205545229563     
  -2.00000000000000        6.46079380096302     
  -2.00000000000000        6.66584698369281     
  -2.00000000000000        6.87669578975123     
  -2.00000000000000        7.09444547183078     
  -2.00000000000000        7.31846081400940     
  -2.00000000000000        7.54910460517365     
  -2.00000000000000        7.78713591893694     
  -2.00000000000000        8.03223753012873     
  -2.00000000000000        8.28469508059247     
  -2.00000000000000        8.54477641638168     
  -2.00000000000000        8.81273320087493     
  -2.00000000000000        9.08880233898139     
  -2.00000000000000        9.37320723852563     
  -2.00000000000000        9.66615893242357     
  -2.00000000000000        9.96796543048132     
  -2.00000000000000        10.2791454328079     
  -2.00000000000000        10.5995269992205     
  -2.00000000000000        10.9296704467654     
  -2.00000000000000        11.2697766789782     
  -2.00000000000000        11.6202444262139     
  -2.00000000000000        11.9811492706687     
  -2.00000000000000        12.3530958873665     
  -2.00000000000000        12.7363474212661     
  -2.00000000000000        13.1311469717171     
  -2.00000000000000        13.5378652672290     
  -2.00000000000000        13.9568515991307     
  -2.00000000000000        14.3885469289191     
  -2.00000000000000        14.8334197438586     
  -2.00000000000000        15.2915911248416     
  -2.00000000000000        15.7637439522179     
  -2.00000000000000        16.2499999953590     
   64.3598750040218       0.625966997630698     
  -7.87957520116331       0.216954918088773     
  -7.80303723243995        5.66194216577676     
   3.59931831732301        8.59625752458530     
   3.70572180199881        8.25301145534217     
   4.30060008630026        8.23699582138056     
   3.95211891023420        7.77799572691358     
   3.63081808714594        8.90809069464219     
   3.27099945698461        9.03807385182848     
   3.99553218420422        8.63651554150645     
   3.32257951274865        8.44646297556996     
   3.29779188327546        8.74798360283394     
   3.30581444310985        8.18489219823121     
   3.42112620476304        7.90379082573313     
   3.86330515555433        7.36578418872769     
   4.57665499129525        7.81133668608323     
   4.90995246881846        8.21588534138024     
   3.15454625537528        6.93903121996888     
   3.44103680455822        7.48686272186320     
   3.21708333208554        7.19913983970603     
   5.46676819613486        8.15868793763948     
   5.75655953772541        8.44516755374774     
   3.09325508274768        10.0701821667388     
   3.08397720171839        9.67775132261529     
   3.51196154371224        9.34733706616646     
   2.93494584370144        9.28645017128311     
   4.06965368468962        9.09367136740808     
   2.97931758653865        8.59778509087209     
   2.94165824394123        8.91109475387404     
   4.31944382937116        7.40379740230191     
   4.62740986964473        8.74445013136062     
   3.00330952166714        8.30796580732956     
   3.03187977628175        8.02155176433751     
   3.55659346846676        7.06978587741670     
   3.04793590515649        7.70810238889032     
   5.15418524732650        7.77645331680098     
   5.30552566628045        8.58977058435055     
   2.99151453834297        7.39507868975257     
   2.84719552875022        6.87497344697758     
   2.90763594275320        7.11716874335693     
   5.95124088360562        8.15021779010385     
   6.17929001117865        8.46752615099484     
   3.07823967921312        6.57837150212704     
   6.64983286238837        8.35525853710603     
   2.95839637563512        10.4883526947349     
   2.75773440350916        10.2051342683125     
   2.74371194091222        9.92126919970438     
   2.66557367700872        9.60896166281446     
   3.53003829752844        9.84349917962322     
   2.52278217341561        9.36416370136765     
   4.03223389826641        9.59525749126077     
   2.51722765336241        9.06874557161322     
   2.61337068688318        8.73737238294958     
   4.58694939738721        9.34358927821218     
   2.65777470250364        8.44417550621124     
   2.68202713533487        8.15972111151647     
   4.01360558533382        7.10632108178589     
   4.79536591876476        7.47896081095343     
   5.19207684065972        9.11227525594025     
   2.69111908110004        7.87078037433260     
   3.55068414912285        6.60557677838328     
   2.62766065407733        7.29011762808185     
   2.67299498332503        7.57688768224339     
   5.69845377781330        7.79987981052538     
   5.85265058248413        8.88478252829660     
   2.54911269237069        6.73126443871264     
   2.57758786363800        7.01526194638578     
   3.13877274410841        6.11366265181408     
   6.26143394040608        7.87197151738238     
   6.51602372935845        8.81229864947625     
   2.42304658828207        6.47539572918932     
   2.66068716677580        6.16342598575882     
   2.45610528119310        5.70972414395488     
   6.81878184342414        7.99301040931985     
   7.13509191330682        8.66498540449681     
   7.78388946767651        8.68903599033044     
   7.44817830190410        8.19677948701263     
   8.21465185955595        8.36218697687643     
   8.93350536644444        8.41018920396392     
   9.58766760966332        8.48268699935424     
   2.56151512110815        10.7510202287234     
   2.52583704616945        10.4244278537454     
   2.45429827065093        10.1317950628418     
   2.91536907539951        10.9386478653521     
   2.38924076841631        9.84476360826913     
   3.46886278661031        10.2959202901639     
   2.29570401947167        9.57076006118596     
   3.96885759161405        10.0858672706688     
   2.17534432395515        9.29737625484061     
   2.24912333321806        8.83976083353047     
   2.15588410713066        9.05546529122815     
   4.50183440026433        9.87000055446393     
   2.30361676932547        8.57115843500805     
   2.33221410918730        8.29725169602653     
   4.75539609825520        6.99977047114588     
   5.07329135655899        9.66100653905328     
   2.34318819047520        8.02063968010120     
   4.02917583436378        6.63287724278930     
   2.33689119597321        7.74048298380775     
   5.53258371770281        7.34341351558102     
   5.68117445841792        9.46951450236429     
   2.31256519785006        7.45957611767832     
   3.33669613206534        6.22598949356389     
   2.27556717512735        7.18144334184177     
   6.26345309181752        7.31944537339480     
   6.31003358291222        9.32111503589485     
   2.23271890458618        6.90474198561164     
   2.16965647649047        6.63106921481986     
   2.08963524624941        6.35003049473187     
   2.85126355017600        5.73098662242584     
   6.87607270518533        7.43020867599019     
   6.93469702791309        9.20740992132400     
   7.52794647580965        7.55525461855063     
   7.54514104336028        9.12652556598412     
   2.03925504433970        5.95259471082252     
   2.32149316675198        5.38521812058310     
   2.03738512937020        5.64809756224183     
   8.10678468517895        9.06840083366559     
   8.20717525248853        7.67242911510733     
   1.72705926653649        5.02808627750090     
   1.92674925657726        5.35905449320145     
   8.62863660521380        8.89654268584848     
   8.88098444165278        7.77044845217749     
   9.29808082115085        8.89757895230717     
   9.51337409456616        7.86938660485190     
   15.8466971002986        8.38146671048827     
   15.2269586843052        8.31600952886111     
   14.5873406659433        8.32995057047925     
   13.9412290452121        8.32645563545254     
   13.3142016170923        8.29320451178654     
   12.6557633359918        8.31122705528657     
   12.2348433264417        8.64335670057895     
   12.0354441672832        8.04852899668581     
   11.6164950726655        8.63794976636815     
   11.4484638650438        8.02070321965891     
   10.9800266651041        8.63935716408628     
   10.8154493126700        7.98430731988766     
   10.2716128646411        8.65280385588106     
   10.1638453218476        7.93396414292831     
   9.82057266880144        8.91759891117625     
   2.49001041481954        11.4751095193208     
   2.47095776561995        11.1335913724649     
   2.26016118498152        10.8946559044225     
   2.23434184837389        10.6342858637129     
   2.18094072492970        10.3450522943426     
   2.83838123058655        11.3454332659235     
   2.11654708385047        10.0602568756192     
   3.37723224247994        10.7429464326462     
   2.04390221204586        9.78660112146687     
   1.95894188390357        9.53435059525093     
   3.87313742663192        10.5555553945558     
   1.92207961490580        8.92827998116134     
   4.39230292963486        10.3667582550156     
   1.89535786310046        9.15385136359615     
   1.86251076557724        9.34586699886708     
   1.95994979095481        8.68650629214445     
   1.98575803511653        8.42826236512188     
   4.94079955231989        10.1810440686254     
   1.99773567639662        8.16302695503174     
   4.48199721099263        6.30740286134791     
   5.25742821171387        6.57665558602806     
   5.51856649065338        10.0063348643769     
   1.98302594352106        7.62096187886186     
   3.99816651043061        6.23045530096928     
   1.99672036728462        7.89347236357662     
   6.08421051536381        6.80798722961624     
   6.11892455478538        9.85275949926587     
   1.95797057032106        7.34727251122837     
   1.92365681450799        7.07367183541232     
   1.87864117574235        6.80139397958262     
   3.23289397252727        5.85803374042651     
   6.70302141669049        6.89973151454648     
   6.72913060118196        9.72579276781576     
   7.34341140750965        7.01004243570450     
   7.33599720819733        9.62342860261479     
   1.74606075165843        6.28638981157521     
   2.69556202543700        5.35425541086981     
   1.82043879804588        6.53284965985466     
   7.92704909500434        9.53824555509537     
   7.99198268733792        7.12628284170778     
   1.58821944724518        5.25441429522809     
   1.67916831789667        5.94066435409306     
   2.06827183182042        4.94846413830909     
   1.61378863324471        5.58116772749374     
   8.50046049808153        9.44742081012469     
   8.65580413492086        7.21793401176094     
   1.39911291656865        4.90340736871296     
   1.78472445930282        4.74073887816298     
   9.08637514918560        9.37449141086958     
   9.30002013361774        7.28988421521058     
   21.1216207989120        8.25585657118851     
   20.6822452833834        8.37952708022937     
   20.0774455810717        8.24997128501398     
   19.3903960214950        8.30304874100155     
   18.6611747866884        8.28571788409356     
   18.0990643643392        8.01490675483642     
   18.0158741043689        8.47904598226730     
   17.5714543825545        8.03380613584972     
   17.3819305310208        8.54999457279447     
   16.9325908221932        8.04957740518423     
   16.6859438842475        8.59611019972477     
   16.2406635250027        8.05387254138363     
   16.1715640798891        8.78071586106759     
   15.5206043655457        7.89902452925180     
   15.6166389353018        8.81056502821422     
   14.9567384460189        7.70670764469120     
   15.0042084122255        8.82039572776359     
   14.3591414449512        8.83243262757072     
   14.3990286754906        7.70736082804858     
   13.6451606339392        8.82864129750082     
   13.7711990323657        7.69729667538189     
   13.0623548751824        8.97054962088841     
   13.1098317392502        7.69686467748414     
   12.5616575567176        9.08098035292384     
   12.5008404043242        7.60507566101335     
   12.0086278600539        9.10497694271995     
   11.9664531328211        7.52033203313004     
   11.4099163191642        9.12766765470047     
   11.2535803779219        7.48615781700845     
   10.7934017872450        9.16377554323792     
   10.6038396017950        7.42571944348446     
   10.2132769378346        9.24943201668178     
   9.95700549376623        7.36130107025277     
   9.66661253863824        9.33208782686143     
   1.39987255212564        4.56320815659954     
   2.37936921927156        12.0520157618960     
   2.27208261716051        11.7290812516892     
   2.16643702905143        11.4166477418483     
   2.06394138846535        11.1195768697945     
   1.96908670568222        10.8405267269057     
   1.90578622392626        10.5569774646942     
   2.70219947145530        11.7560110341471     
   3.28256535627244        11.1791448437470     
   1.84355090020848        10.2709972482070     
   1.77922790369352        9.99224037345871     
   3.75990433213220        11.0102524738103     
   4.26498252935064        10.8428412464052     
   1.62043238683341        9.26674710125318     
   1.65115526514101        9.48896737572229     
   1.71317461109507        9.72837170087734     
   1.62286326300898        9.04055643042159     
   1.63542990978137        8.80304860894464     
   1.64966605367780        8.55547440503831     
   4.79604526437321        10.6777594687708     
   1.65802414976212        8.29994142795133     
   4.98526379121107        5.97367791003567     
   5.35263121847685        10.5191357048835     
   4.31360435936266        5.79703095958001     
   1.65817219301209        8.03916547455767     
   5.61634870818158        6.17199080051462     
   5.93122078286378        10.3727712988448     
   1.60744004259798        7.23834612727961     
   3.78268028889482        5.63385190243552     
   1.63254940513146        7.50724643968284     
   1.64962454109384        7.77457003196028     
   6.48735082957440        6.39737154947846     
   6.52466549510657        10.2436727541321     
   7.14886374549179        6.46330352061465     
   7.12375978349235        10.1334828130691     
   3.20274950052268        5.44690299439341     
   1.53209633413227        6.70112660485753     
   1.57418153836548        6.96913890450768     
   7.74486052259345        6.57091379302504     
   7.71975037774136        10.0397771025571     
   2.57975009808413        5.09324318961674     
   1.29079388290019        5.88194225049110     
   1.44737549834352        6.15481330982206     
   1.48308349604617        6.43539176879924     
   8.30796628365742        9.95638403726271     
   8.46083473330582        6.69646623554765     
   1.14801543441244        5.20462023630789     
   2.18626540217601        4.49988336713949     
   1.26283432873246        5.53597393764784     
   8.89209480015436        9.88232888596239     
   9.08006129599729        6.74907939237713     
   29.3595677872061        8.29987646604238     
   28.7755714746801        8.26890420153116     
   28.0915652785909        8.25142401872728     
   27.3716182695857        8.24678149750367     
   26.6182923744992        8.25532556625856     
   25.7802865769386        8.28650963971353     
   25.2011060849106        8.61778032708051     
   25.0381360020836        8.07223882848833     
   24.3584060904326        7.99699829668177     
   24.6419371997369        8.58465049735705     
   23.9859612192166        8.56366794833563     
   23.6652758667510        7.95816686747355     
   23.2930763607352        8.55226859943270     
   22.9491179512363        7.92990982239325     
   22.5625496971045        8.54571738252468     
   22.2006947892295        7.89456498182099     
   21.7413706766326        8.53663810204802     
   21.4447545518111        7.81243732662761     
   21.0748750764366        8.77634483772292     
   20.6144954078713        7.75679688789659     
   20.4669222259321        8.84226408879469     
   19.8994549974734        7.64509576627757     
   19.8230926341162        8.86050896395475     
   19.2706832560663        7.60863776622166     
   19.1508073513395        8.89373135879250     
   18.6486826920467        7.54189480559438     
   18.4837599200502        8.95964657875101     
   18.0478413538260        7.47216091037937     
   17.8363013805922        9.04576446679376     
   17.4493917103237        7.41543481873823     
   17.1923006914605        9.11408847313335     
   16.7963567909392        7.38238241787884     
   16.5789630102133        9.19713632637850     
   16.1159573528193        7.38154022014340     
   15.9959802237334        9.27219501112825     
   15.5428536524353        7.23902682993344     
   15.3983646433657        9.31123652672058     
   14.8369243335017        7.19922929848883     
   14.7780891323258        9.33873691792637     
   14.1389326604667        9.36694226358745     
   14.1914295708141        7.16377685796305     
   13.5173112722281        9.42331593072118     
   13.5421384955283        7.13666432299870     
   12.9414466424174        9.50223031452124     
   12.8838735645992        7.10632430816325     
   12.3787865142964        9.56129188633532     
   12.2238952323113        7.04080648513085     
   11.8002066030286        9.60080881764633     
   11.6029305140703        6.98604812714067     
   11.2087317239180        9.64117026771172     
   10.9787955435545        6.93115361586964     
   10.6211621549265        9.69532113780133     
   10.3459348529706        6.87458946523832     
   10.0470655115628        9.76021549974907     
   9.70387653824253        6.79532723545612     
   9.47368518309326        9.82072631252946     
   1.05498755498472        4.87927736079436     
   1.83229587394952        4.34450332296461     
  0.908281682287371        4.44757458940434     
   1.39099039331516        4.16170277932901     
  0.531615029406835        4.29499628844494     
  0.820772870839211        4.09637611256799     
   1.14345389124796        4.08702371060495     
   2.09531786326908        12.3398309013349     
   1.99601635994368        11.9998587815870     
   1.89859601852470        11.6778893616269     
   1.80361999886191        11.3675067850946     
   1.71440275000282        11.0677473083369     
   1.63692197833630        10.7741035640496     
   3.16881786235452        11.5974618768866     
   1.57011298869122        10.4827903132930     
   3.63499040362711        11.4493793656975     
   2.71032389069689        12.1067418641875     
   1.50754222755471        10.1965536637707     
   4.12552763586981        11.3022164912483     
   1.39393772723518        9.65880641574954     
   1.44793779059392        9.92043277950416     
   1.35343743313288        9.41145736180481     
   1.33238608850065        9.17123676851608     
   1.32627790424666        8.93023080117767     
   4.64138965872385        11.1562637661771     
   1.32679740557235        8.68492357663487     
   1.32795980739138        8.43473717461156     
   5.18115422985828        11.0139168951594     
   4.85236157213205        5.48302423923941     
   5.46885325494488        5.65691473883716     
   5.74221876704918        10.8789253458891     
   1.32591460788579        8.18016883032718     
   4.24472042684545        5.30259300310233     
   1.30620296309222        7.66069804530702     
   1.31889572792398        7.92194126559201     
   6.15574729473329        5.80191347800765     
   6.31997334970977        10.7551886541620     
   6.81446018907829        5.91339388151657     
   6.90809833216142        10.6453201734848     
   3.65668571602036        5.14490088850159     
   1.23044114859452        6.86790955272992     
   1.26252598105741        7.13253282262121     
   1.28753951052430        7.39721617732436     
   7.47588525403677        6.02223080587812     
   7.49988167276908        10.5496822491859     
   3.08073387435141        5.03725882884364     
   1.14202261026106        6.34130819060381     
   1.19057348827225        6.60440986058839     
   8.09012062117767        10.4664481620683     
   8.06527702810709        6.08616106504355     
   2.51514794496720        4.70657839125899     
  0.964008100893777        5.86007479683877     
   1.06533634822040        6.08471444279617     
   8.67684077650237        10.3934889002656     
   8.96750786515040        6.28513640223599     
   37.3929187864712        8.29979653044518     
   36.7578407419244        8.25841785108766     
   36.0086795527503        8.22605845482888     
   35.2061622402798        8.19611886561744     
   34.3057978600715        8.15229474986293     
   33.6844380520714        7.79471680807981     
   33.5023810395394        8.37993008454692     
   33.0760508175275        7.83192579424418     
   32.7705225509581        8.46312918842193     
   32.3630910126820        7.86021257596124     
   32.0282011425186        8.51186239609669     
   31.6126599507660        7.88355644015775     
   31.2704637701601        8.55474412565423     
   30.8277167010900        7.90927575447246     
   30.5000079696075        8.61190703673842     
   29.9550962444238        7.95218475254790     
   29.7762550195923        8.72565745844859     
   29.1763482015906        7.73647256756428     
   29.1143667989935        8.82245195333143     
   28.4666374961427        7.66293770411059     
   28.4448783493622        8.84747427705395     
   27.7455819323245        7.62789523421815     
   27.7452086567581        8.86236122149743     
   27.0235311127478        8.88446920377736     
   27.0057969960236        7.60731688815934     
   26.2861830557955        8.92825665321667     
   26.2427299086306        7.58680393227749     
   25.5909227993451        9.03172198043326     
   25.4850305701010        7.52147997170573     
   24.7616519752781        7.43375506844154     
   24.9548797853807        9.12155825391135     
   24.3128776978106        9.14255850206433     
   24.0547112493517        7.37597509612263     
   23.6411300609793        9.15239549324013     
   23.3420468868825        7.33392219191153     
   22.9450414963077        9.16537882970266     
   22.6124645588347        7.29350403473708     
   22.2256283841342        9.19159395887266     
   21.8613121420293        7.24023997072477     
   21.5236923709449        9.26867427344181     
   21.0843430476177        7.17391023254928     
   20.8674278153792        9.36144222702668     
   20.3482507720180        7.08639802747401     
   20.2242215053504        9.41462319499034     
   19.6673930881405        6.92076491474972     
   19.5721777670702        9.45430715907928     
   19.1493283010556        6.95010624820236     
   18.9157216014988        9.50172560402484     
   18.4711403183841        6.95191713755365     
   18.2651752184382        9.56127319719920     
   17.7462556650563        6.95010720431648     
   17.6237369475621        9.62444307889220     
   17.2192827541648        6.87098320193332     
   16.9952541988700        9.68788417835938     
   16.6988555962235        6.77696856645596     
   16.3833756374597        9.75017779525987     
   15.8806166977935        6.84024682155841     
   15.7781074245559        9.80153712856376     
   15.4991617900556        6.67841244967849     
   15.1672182230946        9.84091083509258     
   14.6874672966683        6.54433824210769     
   14.5490252623574        9.87675215558355     
   13.9330729227591        9.91905914814792     
   13.9031584240069        6.56714473893200     
   13.3329896341664        9.97216229997957     
   13.2602121409748        6.59121322432015     
   12.7485779459119        10.0267821762732     
   12.5924043638343        6.53003830051841     
   12.1675810368114        10.0741323998681     
   11.9733893544260        6.48713224711792     
   11.5832528961870        10.1174114665222     
   11.3207122623962        6.43819306383838     
   10.9983530247437        10.1637895711898     
   10.6984276805880        6.38500640751214     
   10.4175335485186        10.2161178829152     
   10.0805487749951        6.33717688313648     
   9.83975805513271        10.2717719808766     
   9.47998555050374        6.28457567284953     
   9.26014655004550        10.3296174094887     
  0.658898906146123        5.19167267488936     
  0.862294597995000        5.54207971209585     
   1.97455093743287        4.13486048347626     
  0.648401791610050        4.76543898285928     
   1.63523440915891        3.95876363307555     
  0.378593562980291        3.95043639230873     
  0.782587179593025        3.78682498028130     
  0.534037180492981        4.56657643301430     
   1.35669920178707        3.84470468770586     
  0.449242441241064        3.56281390148074     
   1.78778919906603        12.5998553867050     
   1.81594158953230        12.8985239339812     
   1.70922875250238        12.2641730904673     
   1.62141565553894        11.9365725948368     
   1.53294214524558        11.6174102197203     
   1.44758972967122        11.3056123487412     
   1.29762436695785        10.6992703670501     
   3.49920526989725        11.8707853586135     
   3.05667836923546        11.9920747802002     
   1.23350644745534        10.4039419065099     
   1.36861182686711        10.9999937063522     
   2.49993921421081        12.3841907570716     
   3.97588377325692        11.7459700718946     
   1.17487600184860        10.1165337457179     
   1.12235416816646        9.83982781308585     
   1.04699682742243        9.31947666326812     
   4.47841581989934        11.6194234124898     
   1.07869511301696        9.57484997279125     
   1.02733841739841        9.06939414467651     
   1.01626675865233        8.82066693536878     
   1.00939758563121        8.57097382279346     
   5.00409059807653        11.4937239915768     
   5.42059248033173        5.15305037955841     
   5.55046635028765        11.3719743282903     