 TITLE = "Edge Error"
 VARIABLES = "X", "Y","Estimate1" 
 ZONE T = "Domain", I=       22305  DATAPACKING=POINT, ZONETYPE=ORDERED
  -2.07168033500000        3.07304576500000       4.022752251698739E-003
  -2.05763355000000        3.06638668500000       1.742074005660637E-003
  -2.06404678500000        3.05700420000000       7.045513795680598E-003
  -2.08904678500000        3.05418767000000       1.840361422522057E-002
  -2.07461540000000        3.05270668500000       5.838205866087927E-005
  -2.08556861500000        3.04323107500000       1.761437185427464E-002
  -2.06056861500000        3.04604760500000       9.474906909503311E-003
  -2.10000000000000        3.07270115500000       1.329408306528428E-002
  -2.08904678500000        3.08217676500000       2.617939342051290E-003
  -2.08263355000000        3.09155925000000       4.948953758314292E-003
  -2.09375000000000        3.00000000000000       1.752086723374852E-002
  -2.10000000000000        3.02235603000000       1.168255967644897E-002
  -2.08750000000000        3.00896508000000       6.488635545616311E-003
  -2.09375000000000        3.03132111000000       1.572795331725088E-003
  -2.08125000000000        3.00000000000000       1.011107064085191E-002
  -2.07500000000000        3.01188215000000       4.956416368229561E-003
  -2.08125000000000        3.02084723000000       6.935157424363842E-003
  -2.08750000000000        3.03423818000000       1.089147071102972E-002
  -2.06250000000000        3.00000000000000       8.469085916215821E-003
  -2.05000000000000        3.01258628000000       8.653097397784979E-003
  -2.06250000000000        3.02446843000000       5.789436081451243E-003
  -2.05000000000000        3.03775884000000       8.653097397784826E-003
  -2.06056861500000        3.03346132500000       2.221400699085369E-003
  -2.07306861500000        3.03275719500000       4.570950854411998E-003
  -2.01875000000000        3.03146570000000       1.110532171557478E-002
  -2.03750000000000        3.02517256000000       4.112583493399735E-003
  -2.02495686000000        3.03775884000000       5.124248838511450E-003
  -2.04370686000000        3.03146570000000       6.531304001245809E-003
  -2.00625000000000        3.04405198000000       3.124916796101160E-002
  -2.02500000000000        3.05034512000000       1.785410911466710E-002
  -2.04370686000000        3.04405198000000       3.351742296146300E-005
  -2.03750000000000        3.00000000000000       8.469085916215671E-003
  -2.02500000000000        3.01258628000000       9.986869173756347E-003
  -2.00000000000000        3.01258628000000       1.395647798037356E-002
  -2.01250000000000        3.00000000000000       4.029796864102090E-003
  -2.00625000000000        3.02202599000000       5.536564417151326E-003
  -2.01875000000000        3.00943971000000       8.072074171337937E-003
  -2.00000000000000        3.03775884000000       5.735634103074286E-002
  -2.01250000000000        3.02831913000000       1.280148640490205E-002
  -2.00299448000000        3.05684324500000       2.855282424547376E-002
  -2.02799448000000        3.05684324500000       2.135249472112376E-002
  -2.01046340000000        3.06915435500000       8.969168521244651E-003
  -2.03246892000000        3.06265623000000       3.701447556503797E-002
  -2.01676495500000        3.08144978500000       1.183734052706163E-002
  -2.02653975000000        3.07803601000000       6.269319473596558E-004
  -2.02836686500000        3.08451845500000       5.000496319885934E-003
  -2.01671376500000        3.09535741000000       3.779736647316739E-003
  -2.02443801000000        3.09110925000000       4.365870507379930E-004
  -2.02255970500000        3.09853443000000       2.646944679204128E-003
  -2.03421280500000        3.08769547500000       4.883002179034455E-003
  -2.04407083000000        3.06572490000000       1.270167056682006E-002
  -2.05170438000000        3.08176646500000       4.519429851430465E-003
  -2.04349047000000        3.09090622000000       3.282064384377596E-003
  -2.03956161500000        3.09749701500000       3.032149375163508E-003
  -2.03108041000000        3.09915866000000       8.836566426059084E-004
  -2.02335616500000        3.10340682000000       1.906308600991846E-003
  -2.04035807500000        3.10236940500000       3.408447335213241E-003
  -2.06050317000000        3.10095177000000       4.596747312270357E-003
  -2.05705319000000        3.09156800500000       4.915662785241943E-003
  -2.06871708000000        3.09181201500000       4.713607255086515E-004
  -2.08608353000000        3.10094301500000       5.323273975478002E-003
  -2.01069420000000        3.10967693000000       1.929135856767819E-003
  -2.02344741000000        3.11263787000000       6.417916425485934E-004
  -2.01930615000000        3.11953221000000       1.124754194643452E-003
  -2.00834397000000        3.12343678500000       4.212374926986316E-005
  -2.02109718000000        3.12639772500000       1.281052597236778E-003
  -2.00499914500000        3.13435823500000       1.366622269716672E-004
  -2.01756750000000        3.14133808500000       1.374351877660320E-005
  -2.01243164500000        3.14539402000000       1.776711890005825E-004
  -1.99993164500000        3.14539402000000       5.554834174998948E-005
  -2.01250000000000        3.15237387000000       4.070680637238288E-004
  -2.03750000000000        3.15237387000000       2.355949099609180E-004
  -2.02852968000000        3.13743351000000       1.079182883472374E-003
  -2.04102968000000        3.13743351000000       1.646449057577917E-004
  -2.05000000000000        3.17821568500000       7.316612376216219E-004
  -2.02500000000000        3.16571569000000       1.131824449610875E-004
  -2.03750000000000        3.19155750500000       1.144071699637481E-004
  -2.00000000000000        3.17821568500000       9.842170064931512E-004
  -2.01250000000000        3.19155750500000       8.909578218367789E-004
  -2.02500000000000        3.20405750000000       8.297605678726225E-004
  -2.08750000000000        3.13958714500000       9.293247562379572E-004
  -2.10000000000000        3.16969120000000       8.500649286469361E-004
  -2.07500000000000        3.16145345000000       1.584814753263733E-004
  -2.08750000000000        3.19155750500000       8.863303681165370E-005
  -2.06250000000000        3.14811163000000       3.493571219934238E-004
  -2.06250000000000        3.19155750500000       3.717487053278977E-004
  -2.07500000000000        3.20405750000000       4.861558752916457E-004
  -2.08431292000000        3.11152504000000       6.886748319889385E-003
  -2.10000000000000        3.11800757500000       1.454653332324867E-003
  -2.08431292000000        3.12884236500000       3.269725311287721E-003
  -2.05931292000000        3.13736685000000       3.299823514925838E-003
  -2.07181292000000        3.13310461000000       1.504928196436391E-005
  -2.05034260000000        3.12242649000000       4.360083523749204E-003
  -2.07039645000000        3.11177780500000       1.302488506956154E-003
  -2.05873256000000        3.11153379500000       3.130237617981494E-003
  -2.04044932000000        3.11160045500000       3.846889140298811E-003
  -2.03196811500000        3.11326210000000       4.406964944732589E-004
  -2.10000000000000        3.25718071500000       6.930845341109217E-004
  -2.05000000000000        3.23218072000000       2.894910203637552E-004
  -2.07500000000000        3.28530393500000       1.082190031814361E-004
  -2.00000000000000        3.25718071500000       2.023262361509525E-003
  -2.02500000000000        3.28530393500000       7.051178770317861E-004
  -2.05000000000000        3.31030393000000       5.259435690078365E-004
  -2.10000000000000        3.36496039500000       2.987778596406752E-004
  -2.00000000000000        3.36496039000000       9.666458021453959E-004
  -2.05000000000000        3.41961685500000       3.669581773544890E-004
  -2.10000000000000        3.47594803000000       3.147727018974657E-004
  -2.00000000000000        3.47594802500000       8.252611904730477E-004
  -2.05000000000000        3.53227920000000       1.111202525082581E-004
  -2.10000000000000        3.59055117500000       3.256177177866461E-004
  -2.00000000000000        3.59055117500000       7.753638473859465E-004
  -2.05000000000000        3.64882315000000       6.864677975302077E-005
  -2.10000000000000        3.70879640000000       2.584889399047100E-004
  -2.00000000000000        3.70879639500000       3.913097505084062E-004
  -2.05000000000000        3.76876964500000       5.487982759867155E-005
  -2.10000000000000        3.83051986500000       1.619741029795294E-004
  -2.00000000000000        3.83051986000000       2.925470039469997E-004
  -2.05000000000000        3.89227008000000       2.703395432026386E-005
  -2.10000000000000        3.95586809500000       8.560015946543662E-005
  -2.00000000000000        3.95586809500000       1.884873666898359E-004
  -2.05000000000000        4.01946611000000       3.089972445571370E-006
  -2.10000000000000        4.08497837000000       3.148985702442199E-005
  -2.00000000000000        4.08497836500000       8.252665752605192E-005
  -2.05000000000000        4.15049062500000       1.518568886136746E-005
  -2.10000000000000        4.21797956500000       7.189436762161474E-006
  -2.00000000000000        4.21797956000000       2.786755507033204E-005
  -2.05000000000000        4.28546850000000       1.031284478984542E-005
  -2.10000000000000        4.35499290500000       1.201971140046084E-005
  -2.00000000000000        4.35499290500000       3.459323579626322E-005
  -2.05000000000000        4.42451731000000       2.997387379600905E-006
  -2.10000000000000        4.49613263000000       1.334401362327737E-005
  -2.00000000000000        4.49613263000000       3.563361169915609E-005
  -2.05000000000000        4.56774795000000       5.551000969921629E-006
  -2.10000000000000        4.64150657500000       1.374337358032057E-005
  -2.00000000000000        4.64150657000000       2.901522972456924E-005
  -2.05000000000000        4.71526519500000       4.155840327277554E-006
  -2.10000000000000        4.79121669500000       1.314465144215861E-005
  -2.00000000000000        4.79121669000000       2.137250879874164E-005
  -2.05000000000000        4.86716819000000       2.798182602772368E-006
  -2.10000000000000        4.94556311500000       1.192702982314347E-005
  -2.00000000000000        4.94556311000000       1.616915444177617E-005
  -2.05000000000000        5.02395803500000       1.004905158128332E-005
  -2.10000000000000        5.10476567500000       1.073931636440925E-005
  -2.00000000000000        5.10476567000000       1.330163517466342E-005
  -2.05000000000000        5.18557331000000       1.434714550340140E-005
  -2.10000000000000        5.26874807500000       9.728465935613818E-006
  -2.00000000000000        5.26874807000000       1.148184948036363E-005
  -2.05000000000000        5.35192283500000       1.565196971230043E-005
  -2.10000000000000        5.43750312500000       8.808396174025942E-006
  -2.00000000000000        5.43750312000000       9.977928905637669E-006
  -2.05000000000000        5.52308341000000       1.488382725443600E-005
  -2.10000000000000        5.61135857500000       7.981633086905003E-006
  -2.00000000000000        5.61135857500000       8.742479321645290E-006
  -2.05000000000000        5.69963374000000       1.301961985084226E-005
  -2.10000000000000        5.79064894500000       7.202679715567421E-006
  -2.00000000000000        5.79064894500000       7.666580422168979E-006
  -2.05000000000000        5.88166415000000       1.083545787334824E-005
  -2.10000000000000        5.97522188000000       6.257882850269847E-006
  -2.00000000000000        5.97522187500000       6.412982124430335E-006
  -2.05000000000000        6.06877960500000       8.848985500495021E-006
  -2.10000000000000        6.16541753500000       5.295792996653067E-006
  -2.00000000000000        6.16541752500000       5.147162087362446E-006
  -2.05000000000000        6.26205545500000       7.141043572667791E-006
  -2.10000000000000        6.36142463500000       4.224092803020047E-006
  -2.00000000000000        6.36142462500000       3.803810482452779E-006
  -2.05000000000000        6.46079380500000       5.814450798128638E-006
  -2.10000000000000        6.56332040000000       3.191191324492298E-006
  -2.00000000000000        6.56332039000000       2.537438993517477E-006
  -2.05000000000000        6.66584698500000       4.775066070674437E-006
  -2.10000000000000        6.77127139000000       2.171402162722457E-006
  -2.00000000000000        6.77127138500000       1.357087065937866E-006
  -2.05000000000000        6.87669579000000       3.958581424484911E-006
  -2.10000000000000        6.98557063500000       1.293637286992573E-006
  -2.00000000000000        6.98557063000000       4.005439038412997E-007
  -2.05000000000000        7.09444547500000       3.251477783957249E-006
  -2.10000000000000        7.20645315000000       5.013027072383633E-007
  -2.00000000000000        7.20645314000000       9.710955891284645E-007
  -2.05000000000000        7.31846081500000       2.688273329625700E-006
  -2.10000000000000        7.43378271500000       7.146514702901706E-007
  -2.00000000000000        7.43378271000000       1.516478132436874E-006
  -2.05000000000000        7.54910461000000       2.235233791842224E-006
  -2.10000000000000        7.66812026500000       1.180071020899108E-006
  -2.00000000000000        7.66812026500000       1.984456795532476E-006
  -2.05000000000000        7.78713592000000       1.847170307510222E-006
  -2.10000000000000        7.90968672500000       1.613540899183582E-006
  -2.00000000000000        7.90968672500000       2.458304737477080E-006
  -2.05000000000000        8.03223753000000       1.529094877865293E-006
  -2.10000000000000        8.15846631000000       1.978064127145347E-006
  -2.00000000000000        8.15846630500000       2.879238605947737E-006
  -2.05000000000000        8.28469508500000       1.286461325084751E-006
  -2.10000000000000        8.41473575500000       2.343660916695917E-006
  -2.00000000000000        8.41473575000000       3.321439557744641E-006
  -2.05000000000000        8.54477642000000       1.102067620317903E-006
  -2.10000000000000        8.67875481500000       2.703389351779050E-006
  -2.00000000000000        8.67875481000000       3.773940149337180E-006
  -2.05000000000000        8.81273320500000       9.642441966700810E-007
  -2.10000000000000        8.95076777500000       3.156978996504589E-006
  -2.00000000000000        8.95076777000000       4.350339694699181E-006
  -2.05000000000000        9.08880234000000       8.411850524505312E-007
  -2.10000000000000        9.23100479000000       3.658463846760633E-006
  -2.00000000000000        9.23100479000000       4.982813182074525E-006
  -2.05000000000000        9.37320724000000       7.314771845758208E-007
  -2.10000000000000        9.51968309000000       4.229808309093390E-006
  -2.00000000000000        9.51968308500000       5.692378053785914E-006
  -2.05000000000000        9.66615893500000       6.198123459311892E-007
  -2.10000000000000        9.81706219000000       4.831946782523659E-006
  -2.00000000000000        9.81706218000000       6.431180025352224E-006
  -2.05000000000000        9.96796543500000       5.066139016664098E-007
  -2.10000000000000        10.1235554200000       5.434616643025827E-006
  -2.00000000000000        10.1235554150000       7.167689822409953E-006
  -2.05000000000000        10.2791454000000       3.966333337064236E-007
  -2.10000000000000        10.4393362000000       5.703042086754688E-006
  -2.00000000000000        10.4393362000000       7.616264976299577E-006
  -2.05000000000000        10.5995270000000       2.427623289173132E-007
  -2.10000000000000        10.7645987500000       5.876811512173301E-006
  -2.00000000000000        10.7645987000000       7.848327165406689E-006
  -2.05000000000000        10.9296704500000       2.125619227331577E-007
  -2.10000000000000        11.0997236000000       5.735525123195844E-006
  -2.00000000000000        11.0997235500000       7.848590028723745E-006
  -2.05000000000000        11.2697767000000       2.617020822533784E-007
  -2.10000000000000        11.4450105500000       5.207528194818323E-006
  -2.00000000000000        11.4450105500000       7.247359851856315E-006
  -2.05000000000000        11.6202444000000       2.573117979741241E-007
  -2.10000000000000        11.8006968500000       4.280335211154450E-006
  -2.00000000000000        11.8006968500000       6.136168620933251E-006
  -2.05000000000000        11.9811493000000       2.297250004740296E-007
  -2.10000000000000        12.1671226000000       3.100204348002939E-006
  -2.00000000000000        12.1671226000000       4.773508078388718E-006
  -2.05000000000000        12.3530959000000       1.740800786277186E-007
  -2.10000000000000        12.5447216500000       1.528481790967081E-006
  -2.00000000000000        12.5447216500000       3.003921070762593E-006
  -2.05000000000000        12.7363474000000       1.179325132904956E-007
  -2.10000000000000        12.9337472000000       3.468488317399393E-006
  -2.00000000000000        12.9337472000000       2.532876466119547E-006
  -2.05000000000000        13.1311470000000       3.553699577759677E-008
  -2.10000000000000        13.3345061500000       7.207173100740677E-006
  -2.00000000000000        13.3345061500000       6.492691712996037E-006
  -2.05000000000000        13.5378653000000       9.035484462284336E-008
  -2.10000000000000        13.7473584500000       1.195498084449251E-005
  -2.00000000000000        13.7473584500000       1.108270702011362E-005
  -2.05000000000000        13.9568516000000       3.717602813676296E-007
  -2.10000000000000        14.1726992500000       1.679731256469475E-005
  -2.00000000000000        14.1726992500000       1.483880515171709E-005
  -2.05000000000000        14.3885469000000       1.125646237819791E-007
  -2.10000000000000        14.6109833000000       1.731005056837764E-005
  -2.00000000000000        14.6109833000000       1.529175971222949E-005
  -2.05000000000000        14.8334197000000       4.884828381408065E-006
  -2.10000000000000        15.0625054000000       2.056872376882946E-005
  -2.00000000000000        15.0625054000000       4.815941638831275E-005
  -2.05000000000000        15.2915911000000       1.983459453364858E-006
  -2.10000000000000        15.5276675500000       2.119639631970000E-005
  -2.00000000000000        15.5276675500000       4.962904299580784E-005
  -2.05000000000000        15.7637440000000       1.402938220090399E-005
  -1.05000000000000        16.0068720000000       1.048534404092085E-003
  -2.00000000000000        16.0068720000000       1.550732682465099E-005
  -1.00000000000000        16.2500000000000       9.604446381078504E-004
  -7.99003997000000       0.108790981500000       6.164019293491395E-004
  -8.10000000000000       0.250000000000000       7.915742299838744E-004
  -7.99003997000000       0.358790981500000       1.264116388100059E-004
  -7.90453084500000       0.601423118500000       4.170226191132639E-003
  -8.10000000000000       0.750000000000000       2.168741825602195E-003
  -7.90453084500000       0.851423118500000       2.217154845533776E-003
  -7.85334061000000        1.06792673500000       9.468143821241313E-003
  -8.10000000000000        1.25000000000000       2.168741825602195E-003
  -7.85334061000000        1.31792673500000       4.678860333503196E-003
  -7.86919167000000        1.59549764500000       7.958453458315791E-003
  -8.10000000000000        1.75000000000000       1.916170560660860E-003
  -7.86919167000000        1.84549764500000       4.560076930130600E-003
  -7.87583262000000        2.35617857500000       4.221377433425206E-003
  -7.87583262000000        2.10617857500000       6.442200513910065E-003
  -8.10000000000000        2.25000000000000       1.420176794026564E-003
  -8.10000000000000        2.75000000000000       5.303825150708349E-004
  -7.88323362500000        2.86462199500000       3.799372651573164E-003
  -7.88323362500000        2.61462199500000       4.435231174226014E-003
  -7.88285031500000        3.37023892500000       3.505387760976917E-003
  -7.88285031500000        3.12023892500000       4.140133471731039E-003
  -8.10000000000000        3.25000000000000       6.564330539470117E-004
  -7.88236915000000        3.88067387000000       2.384392963884106E-003
  -7.88236915000000        3.63067387000000       3.995952841888637E-003
  -8.10000000000000        3.75000000000000       1.151637711349847E-003
  -7.89029802000000        4.39333593500000       6.617899957877429E-004
  -7.89029802000000        4.14333593500000       3.218417364413916E-003
  -8.10000000000000        4.25000000000000       1.379491091711213E-003
  -8.10000000000000        4.75000000000000       1.432260418221561E-003
  -7.90647982000000        4.89820905000000       4.321273626162944E-004
  -7.90647982000000        4.64820905000000       2.204447313649730E-003
  -8.10000000000000        5.25000000000000       2.137063162595675E-003
  -7.92701275500000        5.38619006000000       1.033076800373126E-003
  -7.92701275500000        5.13619006000000       2.488475405966532E-003
  -7.95155133500000        5.83136267500000       1.436201246766032E-003
  -7.95155133500000        5.58136267500000       1.749241565138587E-003
  -8.10000000000000        5.75000000000000       2.137063162595675E-003
  -7.85684305500000        5.98812991000000       5.783221280432763E-004
  -7.70839439000000        5.81949258500000       2.452081388275954E-003
  -7.53065475000000        5.76986549000000       2.591619669803747E-003
  -7.37208296500000        5.94659807500000       4.681176240131657E-004
  -7.28905160500000        5.74020374500000       2.794461651370663E-003
  -6.84080080000000        5.62093159500000       2.805112363219653E-003
  -7.07719156000000        5.67887516000000       2.565547557919786E-003
  -6.89408906000000        5.85899276500000       6.164863366545992E-004
  -6.40866059000000        5.45140638000000       4.124025662159813E-003
  -6.63274531500000        5.54624724500000       2.085896906639926E-003
  -6.43361357500000        5.70620833500000       1.740955591490780E-003
  -6.00836484500000        5.47453871000000       4.609815563620589E-003
  -6.02241867000000        5.20081496500000       6.627090514635756E-003
  -6.22358267500000        5.33764372500000       2.024760534231645E-003
  -5.85294489500000        5.02035136000000       5.889445258602032E-003
  -5.63625017000000        5.16454050000000       6.945726823947588E-003
  -5.68199422500000        4.84718191000000       1.730496042613618E-002
  -5.47899884500000        4.45775379500000       9.740926940249604E-003
  -5.53000782000000        4.69934709000000       1.085287331454716E-002
  -5.41429052500000        4.74977775500000       2.508420265600943E-003
  -5.26761638000000        4.55549174500000       6.430061828626018E-003
  -5.31862535500000        4.79708504000000       5.197749328482673E-003
  -5.18244365000000        4.43568206500000       9.234899559417811E-004
  -5.03602223500000        4.41107746000000       4.688144550110303E-004
  -5.04651467500000        4.24396049500000       1.122454551662585E-002
  -5.22558460000000        4.12728327000000       4.862206840186023E-003
  -5.13126411000000        4.14578739000000       3.799950746952739E-003
  -5.16391262000000        4.00450556000000       6.883231377941293E-003
  -4.98484269500000        4.12118278500000       1.312092462538450E-002
  -4.92400324500000        4.09791275500000       9.225802537267940E-003
  -4.86550048000000        4.04523357500000       8.671200461998131E-003
  -4.88941046500000        3.92379044000000       8.132164647359943E-004
  -4.96293750500000        3.87600009500000       3.285614503602175E-003
  -4.90443474000000        3.82332091500000       8.928631511605185E-003
  -4.73077746000000        3.88069596500000       8.330478740214569E-003
  -4.76537024000000        4.05481828000000       3.754273054416659E-003
  -4.58840375500000        3.63420641000000       5.809337056802626E-003
  -4.65564331500000        3.76877151500000       1.394854580425428E-002
  -4.56340766000000        3.75571556500000       8.936037832971148E-003
  -4.42528102000000        3.62587313500000       3.865674641541166E-003
  -4.49252058000000        3.76043824000000       3.075364665153795E-003
  -4.33525581500000        3.55466108500000       6.169188018241999E-003
  -4.21584470500000        3.53421816500000       3.118195139075181E-003
  -4.19670658000000        3.45828344000000       7.416610331977070E-004
  -4.29628721000000        3.40572693500000       1.029465816857424E-002
  -4.25429791500000        3.43535698000000       3.167085953369356E-003
  -4.23446743500000        3.36235755500000       4.962443024267206E-003
  -4.13488680500000        3.41491406000000       1.109249235589011E-003
  -4.08056448500000        3.38263040500000       3.979111919867800E-003
  -3.94314846500000        3.36895770500000       1.282675086572386E-003
  -3.94641748000000        3.31374759000000       1.914573662378596E-003
  -4.06745006500000        3.25450234000000       9.966208599325545E-003
  -3.93003404500000        3.24082964000000       1.078433507116029E-002
  -3.80075222500000        3.23313195500000       1.745526079240627E-003
  -3.68136953500000        3.25137458500000       2.537433776931368E-003
  -3.67312030000000        3.18443165000000       3.914826708665542E-003
  -3.82179537000000        3.10704650500000       6.080548002593981E-003
  -3.74461725000000        3.13477663500000       2.607816169399336E-004
  -3.77390963000000        3.07563412000000       3.678075347919731E-003
  -3.62523456000000        3.15301926500000       3.376948852030273E-003
  -3.57427427000000        3.10187454500000       1.026377650638125E-002
  -3.43477860000000        3.16875277500000       4.020741068675921E-003
  -3.45531526000000        3.06795304000000       1.284764304885948E-002
  -3.31415776500000        3.01734224000000       9.937599184864828E-003
  -3.21243075500000        3.11254298500000       3.842759669566657E-003
  -3.21076893000000        2.99505395500000       1.497350542288912E-002
  -3.08599554500000        2.99636741000000       3.503657863863528E-003
  -3.00852282000000        3.07396744500000       3.929423350264208E-003
  -2.98547644500000        2.98008015500000       8.565472446454909E-003
  -2.88692330000000        2.96699311500000       3.721468684666474E-003
  -2.82633137000000        3.04782221500000       2.993028910386880E-003
  -2.80525095000000        2.95713514000000       8.418903057438188E-003
  -2.71388160000000        2.95156032000000       9.919322688548941E-004
  -2.66515344500000        3.03082679000000       2.944965982369373E-003
  -2.63437602500000        2.94442287000000       5.807440277510892E-003
  -2.55508280500000        2.93578474500000       3.596834086360633E-004
  -2.51538427000000        3.01906856000000       2.270261278109927E-003
  -2.48481920500000        2.93116396500000       3.008873255817459E-003
  -2.35729030500000        2.89623642000000       3.496812925868386E-004
  -2.40357540000000        2.93084508500000       6.652147362081969E-004
  -2.39883557500000        2.97983911500000       1.112764358204967E-003
  -2.34133723500000        2.97697899500000       3.855226523776734E-004
  -2.37010388500000        2.97832494000000       1.087540173345507E-004
  -2.35889064000000        3.01007348500000       2.174028504266443E-004
  -2.41638898000000        3.01293360500000       8.175512040665278E-004
  -2.26081749500000        2.96603320000000       1.140031464227216E-003
  -2.25530390500000        2.93430786500000       1.805047686827539E-003
  -2.27352208000000        2.93914139500000       7.985769045048641E-005
  -2.30457983000000        2.98979713500000       3.757414179796970E-006
  -2.29906624000000        2.95807180000000       2.097326640962895E-003
  -2.22883719000000        2.98264607500000       2.237529786400589E-003
  -2.25761161000000        2.98375436000000       8.523716266827015E-004
  -2.24384948000000        3.00520076500000       3.941686024016302E-003
  -2.30137394500000        3.00751829500000       6.211383876857154E-004
  -2.27582978500000        2.98858789000000       1.735367271928605E-004
  -2.14831613500000        2.91653952500000       1.172983672334746E-003
  -2.16378345500000        2.92348156500000       5.545027725415945E-003
  -2.16505592000000        2.94223465000000       3.566840390409077E-003
  -2.14480188000000        2.94652394000000       9.469131758258482E-003
  -2.15498917500000        2.94446319500000       6.180498177698356E-004
  -2.15020245500000        2.95569452500000       1.060420169000939E-002
  -2.17045649500000        2.95140523500000       2.593941779347845E-003
  -2.12774412000000        2.96577918500000       3.696022466636024E-002
  -2.14878093500000        2.97988393000000       1.324255409288773E-003
  -2.13650989500000        2.98790784500000       1.836004809466276E-002
  -2.11268128000000        2.98200124500000       1.870243533971852E-002
  -2.12212332000000        2.98740258000000       8.960648433850769E-003
  -2.11933152000000        2.99560072500000       1.039808398556111E-002
  -2.10494474000000        2.99509969500000       1.642252689349720E-002
  -2.11213814500000        2.99534994500000       1.030664998885252E-003
  -2.10719340500000        3.00025025000000       2.003477823779403E-002
  -2.12158018500000        3.00075128000000       9.508409668118747E-003
  -2.14316013500000        3.00150732500000       1.901545246490378E-002
  -2.17683115500000        2.96345968000000       2.751712610487911E-003
  -2.19779915000000        2.97663458500000       3.472237602873530E-003
  -2.19410706500000        2.99091757500000       8.623946758893986E-003
  -2.17193288000000        3.00252634000000       1.280718877300071E-002