TITLE = "Visualization of the solution"
VARIABLES = "x","y","Density","Momentum_x","Momentum_y","Energy","Pressure","Temperature","Pressure_Coefficient","Mach"
ZONE NODES= 8400, ELEMENTS= 16396, DATAPACKING=POINT, ZONETYPE=FEQUADRILATERAL
-2.100000e+00	3.000000e+00	2.350948e+00	6.193582e+00	5.931680e-01	8.242748e+00	3.764162e-03	1.601125e-03	-1.423194e+18	5.589910e+01	
-2.100000e+00	3.100690e+00	8.462483e-01	2.378002e-01	-3.951797e-01	2.041579e+00	7.663590e-01	9.055960e-01	-3.337728e+17	4.840285e-01	
-2.100000e+00	3.204058e+00	9.608628e-01	-2.314152e-03	-4.729197e-01	2.432617e+00	9.264931e-01	9.642304e-01	-1.050099e+17	4.236204e-01	
-2.100000e+00	3.310304e+00	9.434154e-01	3.486023e-03	-4.641217e-01	2.388494e+00	9.097293e-01	9.642934e-01	-1.289582e+17	4.234211e-01	
-2.100000e+00	3.419617e+00	9.447180e-01	3.515491e-03	-4.619217e-01	2.391583e+00	9.114592e-01	9.647949e-01	-1.264869e+17	4.207239e-01	
-2.100000e+00	3.532279e+00	9.463138e-01	1.732716e-03	-4.371886e-01	2.392066e+00	9.164301e-01	9.684210e-01	-1.193855e+17	3.967720e-01	
-2.100000e+00	3.648823e+00	9.489069e-01	1.596575e-03	-3.950538e-01	2.391990e+00	9.239011e-01	9.736478e-01	-1.087127e+17	3.565917e-01	
-2.100000e+00	3.768770e+00	9.529164e-01	1.402100e-03	-3.520793e-01	2.394901e+00	9.319429e-01	9.779902e-01	-9.722441e+16	3.157605e-01	
-2.100000e+00	3.892270e+00	9.564889e-01	1.037694e-03	-3.130630e-01	2.397509e+00	9.385101e-01	9.812034e-01	-8.784265e+16	2.792612e-01	
-2.100000e+00	4.019466e+00	9.597260e-01	5.192054e-04	-2.794489e-01	2.400524e+00	9.439359e-01	9.835473e-01	-8.009150e+16	2.481385e-01	
-2.100000e+00	4.150491e+00	9.626039e-01	9.103775e-05	-2.509324e-01	2.403472e+00	9.483061e-01	9.851467e-01	-7.384838e+16	2.219702e-01	
-2.100000e+00	4.285469e+00	9.652889e-01	-3.392652e-05	-2.267011e-01	2.407106e+00	9.521940e-01	9.864342e-01	-6.829431e+16	1.998473e-01	
-2.100000e+00	4.424517e+00	9.678621e-01	-4.564905e-05	-2.060388e-01	2.411476e+00	9.558180e-01	9.875559e-01	-6.311721e+16	1.810467e-01	
-2.100000e+00	4.567748e+00	9.702787e-01	-5.305000e-05	-1.882349e-01	2.416213e+00	9.591815e-01	9.885629e-01	-5.831219e+16	1.649064e-01	
-2.100000e+00	4.715265e+00	9.724655e-01	-6.100321e-05	-1.726588e-01	2.420792e+00	9.621856e-01	9.894291e-01	-5.402052e+16	1.508544e-01	
-2.100000e+00	4.867168e+00	9.743372e-01	-7.034342e-05	-1.588450e-01	2.424793e+00	9.647380e-01	9.901480e-01	-5.037429e+16	1.384682e-01	
-2.100000e+00	5.023958e+00	9.758417e-01	-7.815869e-05	-1.464480e-01	2.427982e+00	9.667971e-01	9.907315e-01	-4.743269e+16	1.274272e-01	
-2.100000e+00	5.185573e+00	9.769824e-01	-7.756877e-05	-1.352713e-01	2.430237e+00	9.683490e-01	9.911632e-01	-4.521566e+16	1.175391e-01	
-2.100000e+00	5.351923e+00	9.778041e-01	-7.536767e-05	-1.251358e-01	2.431654e+00	9.694589e-01	9.914654e-01	-4.363018e+16	1.086243e-01	
-2.100000e+00	5.523083e+00	9.783942e-01	-7.094174e-05	-1.158631e-01	2.432505e+00	9.702577e-01	9.916839e-01	-4.248894e+16	1.005034e-01	
-2.100000e+00	5.699634e+00	9.788375e-01	-6.455233e-05	-1.072934e-01	2.433034e+00	9.708615e-01	9.918515e-01	-4.162645e+16	9.301974e-02	
-2.100000e+00	5.881664e+00	9.791943e-01	-5.736557e-05	-9.934334e-02	2.433413e+00	9.713494e-01	9.919885e-01	-4.092940e+16	8.608998e-02	
-2.100000e+00	6.068780e+00	9.795018e-01	-5.004168e-05	-9.197610e-02	2.433745e+00	9.717709e-01	9.921072e-01	-4.032735e+16	7.967580e-02	
-2.100000e+00	6.262055e+00	9.797772e-01	-4.284334e-05	-8.511442e-02	2.434067e+00	9.721481e-01	9.922134e-01	-3.978846e+16	7.370710e-02	
-2.100000e+00	6.460794e+00	9.800308e-01	-3.623768e-05	-7.875067e-02	2.434402e+00	9.724951e-01	9.923108e-01	-3.929270e+16	6.817525e-02	
-2.100000e+00	6.665847e+00	9.802664e-01	-3.021723e-05	-7.282463e-02	2.434749e+00	9.728175e-01	9.924011e-01	-3.883219e+16	6.302699e-02	
-2.100000e+00	6.876696e+00	9.804879e-01	-2.550623e-05	-6.731725e-02	2.435113e+00	9.731208e-01	9.924863e-01	-3.839879e+16	5.824490e-02	
-2.100000e+00	7.094445e+00	9.806966e-01	-2.098007e-05	-6.216983e-02	2.435488e+00	9.734071e-01	9.925671e-01	-3.798980e+16	5.377756e-02	
-2.100000e+00	7.318461e+00	9.808908e-01	-1.819661e-05	-5.736981e-02	2.435863e+00	9.736742e-01	9.926428e-01	-3.760832e+16	4.961377e-02	
-2.100000e+00	7.549105e+00	9.810707e-01	-1.489486e-05	-5.288165e-02	2.436228e+00	9.739213e-01	9.927127e-01	-3.725528e+16	4.572239e-02	
-2.100000e+00	7.787136e+00	9.812316e-01	-1.308838e-05	-4.866643e-02	2.436562e+00	9.741419e-01	9.927746e-01	-3.694020e+16	4.206963e-02	
-2.100000e+00	8.032238e+00	9.813732e-01	-1.058991e-05	-4.470622e-02	2.436855e+00	9.743348e-01	9.928280e-01	-3.666454e+16	3.863961e-02	
-2.100000e+00	8.284695e+00	9.814917e-01	-9.249987e-06	-4.097390e-02	2.437093e+00	9.744953e-01	9.928717e-01	-3.643530e+16	3.540871e-02	
-2.100000e+00	8.544776e+00	9.815879e-01	-7.302355e-06	-3.744657e-02	2.437275e+00	9.746243e-01	9.929058e-01	-3.625094e+16	3.235674e-02	
-2.100000e+00	8.812733e+00	9.816608e-01	-6.213287e-06	-3.410506e-02	2.437394e+00	9.747206e-01	9.929301e-01	-3.611348e+16	2.946687e-02	
-2.100000e+00	9.088802e+00	9.817139e-01	-4.676877e-06	-3.093376e-02	2.437460e+00	9.747892e-01	9.929463e-01	-3.601542e+16	2.672519e-02	
-2.100000e+00	9.373207e+00	9.817501e-01	-3.743496e-06	-2.792070e-02	2.437483e+00	9.748342e-01	9.929556e-01	-3.595108e+16	2.412106e-02	
-2.100000e+00	9.666159e+00	9.817738e-01	-2.537671e-06	-2.505680e-02	2.437473e+00	9.748615e-01	9.929593e-01	-3.591220e+16	2.164634e-02	
-2.100000e+00	9.967965e+00	9.817887e-01	-1.700512e-06	-2.233262e-02	2.437444e+00	9.748761e-01	9.929591e-01	-3.589131e+16	1.929265e-02	
-2.100000e+00	1.027915e+01	9.817992e-01	-7.025908e-07	-1.973871e-02	2.437409e+00	9.748842e-01	9.929569e-01	-3.587966e+16	1.705167e-02	
-2.100000e+00	1.059953e+01	9.818065e-01	8.834549e-09	-1.727553e-02	2.437370e+00	9.748873e-01	9.929526e-01	-3.587534e+16	1.492372e-02	
-2.100000e+00	1.092967e+01	9.818163e-01	7.861677e-07	-1.493980e-02	2.437348e+00	9.748937e-01	9.929492e-01	-3.586613e+16	1.290586e-02	
-2.100000e+00	1.126978e+01	9.818284e-01	1.388354e-06	-1.273286e-02	2.437339e+00	9.749025e-01	9.929459e-01	-3.585354e+16	1.099926e-02	
-2.100000e+00	1.162024e+01	9.818395e-01	5.799771e-07	-1.066130e-02	2.437332e+00	9.749095e-01	9.929418e-01	-3.584355e+16	9.209659e-03	
-2.100000e+00	1.198115e+01	9.818502e-01	-2.986007e-07	-8.732704e-03	2.437330e+00	9.749163e-01	9.929379e-01	-3.583384e+16	7.543596e-03	
-2.100000e+00	1.235310e+01	9.818606e-01	-1.245751e-06	-6.950296e-03	2.437332e+00	9.749229e-01	9.929342e-01	-3.582446e+16	6.003842e-03	
-2.100000e+00	1.273635e+01	9.818702e-01	-2.289241e-06	-5.321404e-03	2.437336e+00	9.749285e-01	9.929302e-01	-3.581640e+16	4.596728e-03	
-2.100000e+00	1.313115e+01	9.818786e-01	-3.481329e-06	-3.856335e-03	2.437339e+00	9.749327e-01	9.929259e-01	-3.581039e+16	3.331154e-03	
-2.100000e+00	1.353787e+01	9.818853e-01	-4.836489e-06	-2.569951e-03	2.437340e+00	9.749345e-01	9.929210e-01	-3.580787e+16	2.219952e-03	
-2.100000e+00	1.395685e+01	9.818906e-01	-6.367429e-06	-1.482841e-03	2.437336e+00	9.749339e-01	9.929150e-01	-3.580873e+16	1.280901e-03	
-2.100000e+00	1.438855e+01	9.818968e-01	-8.065800e-06	-6.153794e-04	2.437330e+00	9.749318e-01	9.929066e-01	-3.581170e+16	5.316137e-04	
-2.100000e+00	1.483342e+01	9.819092e-01	-9.506494e-06	2.230376e-05	2.437322e+00	9.749286e-01	9.928908e-01	-3.581623e+16	2.094306e-05	
-2.100000e+00	1.529159e+01	9.819260e-01	-3.844023e-06	3.826157e-04	2.437278e+00	9.749112e-01	9.928561e-01	-3.584120e+16	3.305208e-04	
-2.100000e+00	1.576374e+01	9.819390e-01	-1.166803e-04	4.093580e-04	2.437261e+00	9.749046e-01	9.928362e-01	-3.585064e+16	3.676866e-04	
0.000000e+00	1.625000e+01	9.810159e-01	-3.952049e-03	-4.205682e-03	2.434048e+00	9.736125e-01	9.924534e-01	-3.769645e+16	4.990788e-03	
-2.000000e+00	3.000000e+00	3.595299e+00	6.442314e+00	2.635610e+00	1.202970e+01	2.116703e+00	5.887419e-01	1.595291e+18	2.132478e+00	
-2.015330e+00	3.104304e+00	1.076033e+00	1.632616e-01	-1.540493e-01	2.665130e+00	1.056687e+00	9.820213e-01	8.098159e+16	1.779111e-01	
-2.000000e+00	3.204057e+00	9.496297e-01	4.514785e-02	-3.476823e-01	2.367510e+00	9.211158e-01	9.699737e-01	-1.126916e+17	3.168220e-01	
-2.000000e+00	3.310304e+00	9.343187e-01	1.528644e-02	-3.990666e-01	2.333967e+00	8.994469e-01	9.626767e-01	-1.436473e+17	3.681836e-01	
-2.000000e+00	3.419617e+00	9.272213e-01	-2.147190e-03	-4.046628e-01	2.321156e+00	8.931404e-01	9.632440e-01	-1.526566e+17	3.758234e-01	
-2.000000e+00	3.532279e+00	9.341756e-01	-1.602962e-02	-3.977655e-01	2.343745e+00	9.035697e-01	9.672375e-01	-1.377575e+17	3.662017e-01	
-2.000000e+00	3.648823e+00	9.398371e-01	-2.271306e-02	-3.732395e-01	2.353968e+00	9.118325e-01	9.702027e-01	-1.259536e+17	3.413834e-01	
-2.000000e+00	3.768770e+00	9.464211e-01	-2.282152e-02	-3.424936e-01	2.367971e+00	9.222897e-01	9.745024e-01	-1.110148e+17	3.105092e-01	
-2.000000e+00	3.892270e+00	9.524474e-01	-1.983880e-02	-3.098949e-01	2.381455e+00	9.323334e-01	9.788818e-01	-9.666657e+16	2.785046e-01	
-2.000000e+00	4.019466e+00	9.578433e-01	-1.662417e-02	-2.795624e-01	2.393187e+00	9.408979e-01	9.823088e-01	-8.443151e+16	2.493233e-01	
-2.000000e+00	4.150491e+00	9.620089e-01	-1.368585e-02	-2.525783e-01	2.401204e+00	9.471796e-01	9.845851e-01	-7.545766e+16	2.239561e-01	
-2.000000e+00	4.285468e+00	9.652793e-01	-1.108711e-02	-2.288315e-01	2.407048e+00	9.519443e-01	9.861853e-01	-6.865106e+16	2.019895e-01	
-2.000000e+00	4.424517e+00	9.680267e-01	-8.873297e-03	-2.081178e-01	2.412026e+00	9.558453e-01	9.874163e-01	-6.307808e+16	1.830215e-01	
-2.000000e+00	4.567748e+00	9.704684e-01	-7.152422e-03	-1.899980e-01	2.416807e+00	9.592729e-01	9.884638e-01	-5.818161e+16	1.665447e-01	
-2.000000e+00	4.715265e+00	9.726170e-01	-5.921979e-03	-1.739893e-01	2.421249e+00	9.622673e-01	9.893589e-01	-5.390388e+16	1.520867e-01	
-2.000000e+00	4.867168e+00	9.744471e-01	-5.060184e-03	-1.597234e-01	2.425125e+00	9.648085e-01	9.901086e-01	-5.027360e+16	1.392909e-01	
-2.000000e+00	5.023958e+00	9.759337e-01	-4.430454e-03	-1.469131e-01	2.428242e+00	9.668695e-01	9.907123e-01	-4.732935e+16	1.278791e-01	
-2.000000e+00	5.185573e+00	9.770702e-01	-3.948730e-03	-1.354061e-01	2.430470e+00	9.684318e-01	9.911588e-01	-4.509743e+16	1.176959e-01	
-2.000000e+00	5.351923e+00	9.778951e-01	-3.559401e-03	-1.250398e-01	2.431884e+00	9.695532e-01	9.914695e-01	-4.349547e+16	1.085746e-01	
-2.000000e+00	5.523083e+00	9.784862e-01	-3.220136e-03	-1.156256e-01	2.432730e+00	9.703572e-01	9.916923e-01	-4.234687e+16	1.003264e-01	
-2.000000e+00	5.699634e+00	9.789256e-01	-2.907089e-03	-1.069826e-01	2.433245e+00	9.709580e-01	9.918609e-01	-4.148851e+16	9.277574e-02	
-2.000000e+00	5.881664e+00	9.792746e-01	-2.613523e-03	-9.900584e-02	2.433602e+00	9.714374e-01	9.919969e-01	-4.080366e+16	8.581997e-02	
-2.000000e+00	6.068780e+00	9.795719e-01	-2.341018e-03	-9.164265e-02	2.433906e+00	9.718466e-01	9.921136e-01	-4.021921e+16	7.940690e-02	
-2.000000e+00	6.262055e+00	9.798363e-01	-2.091646e-03	-8.480533e-02	2.434198e+00	9.722105e-01	9.922172e-01	-3.969935e+16	7.345718e-02	
-2.000000e+00	6.460794e+00	9.800789e-01	-1.867976e-03	-7.847935e-02	2.434504e+00	9.725440e-01	9.923119e-01	-3.922290e+16	6.795622e-02	
-2.000000e+00	6.665847e+00	9.803044e-01	-1.670084e-03	-7.259919e-02	2.434824e+00	9.728537e-01	9.923996e-01	-3.878041e+16	6.284611e-02	
-2.000000e+00	6.876696e+00	9.805173e-01	-1.497397e-03	-6.714153e-02	2.435166e+00	9.731465e-01	9.924828e-01	-3.836213e+16	5.810566e-02	
-2.000000e+00	7.094445e+00	9.807179e-01	-1.349402e-03	-6.204434e-02	2.435520e+00	9.734227e-01	9.925614e-01	-3.796752e+16	5.368068e-02	
-2.000000e+00	7.318461e+00	9.809070e-01	-1.223820e-03	-5.729287e-02	2.435881e+00	9.736830e-01	9.926354e-01	-3.759574e+16	4.955791e-02	
-2.000000e+00	7.549105e+00	9.810813e-01	-1.119846e-03	-5.285029e-02	2.436231e+00	9.739229e-01	9.927036e-01	-3.725297e+16	4.570525e-02	
-2.000000e+00	7.787136e+00	9.812393e-01	-1.033252e-03	-4.867722e-02	2.436558e+00	9.741401e-01	9.927651e-01	-3.694278e+16	4.208831e-02	
-2.000000e+00	8.032238e+00	9.813772e-01	-9.628318e-04	-4.475544e-02	2.436843e+00	9.743289e-01	9.928179e-01	-3.667305e+16	3.869114e-02	
-2.000000e+00	8.284695e+00	9.814941e-01	-9.045230e-04	-4.105871e-02	2.437078e+00	9.744876e-01	9.928613e-01	-3.644631e+16	3.549071e-02	
-2.000000e+00	8.544776e+00	9.815870e-01	-8.573359e-04	-3.756568e-02	2.437250e+00	9.746122e-01	9.928944e-01	-3.626821e+16	3.246833e-02	
-2.000000e+00	8.812733e+00	9.816576e-01	-8.164860e-04	-3.425874e-02	2.437363e+00	9.747058e-01	9.929182e-01	-3.613462e+16	2.960833e-02	
-2.000000e+00	9.088802e+00	9.817081e-01	-7.795125e-04	-3.112289e-02	2.437422e+00	9.747713e-01	9.929339e-01	-3.604101e+16	2.689735e-02	
-2.000000e+00	9.373207e+00	9.817431e-01	-7.434706e-04	-2.814615e-02	2.437442e+00	9.748152e-01	9.929433e-01	-3.597831e+16	2.432464e-02	
-2.000000e+00	9.666159e+00	9.817653e-01	-7.079959e-04	-2.531987e-02	2.437429e+00	9.748410e-01	9.929471e-01	-3.594145e+16	2.188247e-02	
-2.000000e+00	9.967965e+00	9.817796e-01	-6.722599e-04	-2.263311e-02	2.437399e+00	9.748552e-01	9.929471e-01	-3.592112e+16	1.956116e-02	
-2.000000e+00	1.027915e+01	9.817890e-01	-6.370590e-04	-2.007583e-02	2.437361e+00	9.748621e-01	9.929447e-01	-3.591127e+16	1.735191e-02	
-2.000000e+00	1.059953e+01	9.817967e-01	-5.997988e-04	-1.764418e-02	2.437327e+00	9.748673e-01	9.929421e-01	-3.590384e+16	1.525123e-02	
-2.000000e+00	1.092967e+01	9.818079e-01	-5.615665e-04	-1.533435e-02	2.437311e+00	9.748764e-01	9.929401e-01	-3.589088e+16	1.325575e-02	
-2.000000e+00	1.126978e+01	9.818212e-01	-5.229249e-04	-1.314865e-02	2.437306e+00	9.748873e-01	9.929377e-01	-3.587532e+16	1.136755e-02	
-2.000000e+00	1.162024e+01	9.818354e-01	-4.821195e-04	-1.109196e-02	2.437310e+00	9.748990e-01	9.929353e-01	-3.585851e+16	9.590805e-03	
-2.000000e+00	1.198115e+01	9.818497e-01	-4.401700e-04	-9.170087e-03	2.437321e+00	9.749111e-01	9.929331e-01	-3.584134e+16	7.930566e-03	
-2.000000e+00	1.235310e+01	9.818626e-01	-3.983348e-04	-7.386526e-03	2.437331e+00	9.749214e-01	9.929305e-01	-3.582664e+16	6.389938e-03	
-2.000000e+00	1.273635e+01	9.818745e-01	-3.559560e-04	-5.748768e-03	2.437343e+00	9.749305e-01	9.929278e-01	-3.581362e+16	4.975387e-03	
-2.000000e+00	1.313115e+01	9.818857e-01	-3.115437e-04	-4.266827e-03	2.437357e+00	9.749390e-01	9.929251e-01	-3.580150e+16	3.695527e-03	
-2.000000e+00	1.353787e+01	9.818958e-01	-2.640329e-04	-2.954650e-03	2.437368e+00	9.749456e-01	9.929216e-01	-3.579205e+16	2.562396e-03	
-2.000000e+00	1.395685e+01	9.819055e-01	-2.121403e-04	-1.829999e-03	2.437379e+00	9.749509e-01	9.929173e-01	-3.578436e+16	1.591326e-03	
-2.000000e+00	1.438855e+01	9.819171e-01	-1.576929e-04	-9.135019e-04	2.437389e+00	9.749555e-01	9.929102e-01	-3.577786e+16	8.007407e-04	
-2.000000e+00	1.483342e+01	9.819354e-01	-1.056263e-04	-2.153370e-04	2.437398e+00	9.749592e-01	9.928955e-01	-3.577257e+16	2.071748e-04	
-2.000000e+00	1.529159e+01	9.819179e-01	-6.685419e-05	2.924825e-04	2.437241e+00	9.748964e-01	9.928493e-01	-3.586225e+16	2.591658e-04	
-2.000000e+00	1.576374e+01	9.821565e-01	-1.933584e-04	1.425718e-03	2.438020e+00	9.752075e-01	9.929247e-01	-3.541786e+16	1.242477e-03	
-2.000000e+00	1.625000e+01	9.819250e-01	-9.007005e-04	5.590551e-03	2.437201e+00	9.748741e-01	9.928193e-01	-3.589420e+16	4.891496e-03	
6.435988e+01	6.259670e-01	1.121715e+00	1.380334e+00	-1.391104e-02	3.406314e+00	1.022776e+00	9.117962e-01	3.253656e+16	1.089208e+00	
-7.879575e+00	2.169549e-01	1.297305e+01	3.876716e+00	-1.775996e-02	3.659311e+01	1.440554e+01	1.110421e+00	1.915078e+19	2.396728e-01	
-7.803037e+00	5.661942e+00	1.328942e+01	1.659321e+00	-1.250480e-01	3.735893e+01	1.490190e+01	1.121335e+00	1.985986e+19	9.993608e-02	
3.599318e+00	8.596258e+00	9.821155e-01	-1.965668e-02	-3.446361e-02	2.438380e+00	9.750315e-01	9.927870e-01	-3.566934e+16	3.426613e-02	
3.705722e+00	8.253011e+00	9.819348e-01	-1.930709e-02	-3.478746e-02	2.438046e+00	9.748961e-01	9.928319e-01	-3.586269e+16	3.436739e-02	
4.300600e+00	8.236996e+00	9.821460e-01	-1.758709e-02	-2.929575e-02	2.439011e+00	9.753668e-01	9.930976e-01	-3.519025e+16	2.950537e-02	
3.952119e+00	7.777996e+00	9.813498e-01	-1.534054e-02	-3.284075e-02	2.437051e+00	9.745527e-01	9.930737e-01	-3.635334e+16	3.132520e-02	
3.630818e+00	8.908091e+00	9.822864e-01	-1.926116e-02	-3.323617e-02	2.438865e+00	9.752456e-01	9.928323e-01	-3.536336e+16	3.317030e-02	
3.270999e+00	9.038074e+00	9.822496e-01	-1.898416e-02	-3.430067e-02	2.438719e+00	9.751748e-01	9.927974e-01	-3.546454e+16	3.385411e-02	
3.995532e+00	8.636516e+00	9.822682e-01	-1.917786e-02	-3.164037e-02	2.438938e+00	9.752966e-01	9.929026e-01	-3.529054e+16	3.194765e-02	
3.322580e+00	8.446463e+00	9.819876e-01	-1.983931e-02	-3.657904e-02	2.437980e+00	9.748391e-01	9.927204e-01	-3.594410e+16	3.594540e-02	
3.297792e+00	8.747984e+00	9.821373e-01	-1.955665e-02	-3.543340e-02	2.438385e+00	9.750205e-01	9.927538e-01	-3.568495e+16	3.495412e-02	
3.305814e+00	8.184892e+00	9.818047e-01	-1.975821e-02	-3.769887e-02	2.437524e+00	9.746407e-01	9.927033e-01	-3.622754e+16	3.677319e-02	
3.421126e+00	7.903791e+00	9.815313e-01	-1.864189e-02	-3.779745e-02	2.436977e+00	9.744289e-01	9.927639e-01	-3.653021e+16	3.642090e-02	
3.863305e+00	7.365784e+00	9.803999e-01	-6.809101e-03	-3.221536e-02	2.435231e+00	9.738714e-01	9.933410e-01	-3.732655e+16	2.847980e-02	
4.576655e+00	7.811337e+00	9.817222e-01	-1.150107e-02	-2.493701e-02	2.438792e+00	9.753632e-01	9.935226e-01	-3.519543e+16	2.371818e-02	
4.909952e+00	8.215885e+00	9.827720e-01	-1.398863e-02	-2.247231e-02	2.441394e+00	9.764150e-01	9.935315e-01	-3.369293e+16	2.283780e-02	
3.154546e+00	6.939031e+00	9.796800e-01	-1.302984e-03	-3.563111e-02	2.433236e+00	9.730348e-01	9.932169e-01	-3.852176e+16	3.086378e-02	
3.441037e+00	7.486863e+00	9.809308e-01	-1.415521e-02	-3.771968e-02	2.435874e+00	9.740188e-01	9.929537e-01	-3.711595e+16	3.483467e-02	
3.217083e+00	7.199140e+00	9.802399e-01	-1.006060e-02	-3.830169e-02	2.434072e+00	9.733089e-01	9.929293e-01	-3.813016e+16	3.426495e-02	
5.466768e+00	8.158688e+00	9.835322e-01	-7.500090e-03	-1.575429e-02	2.444377e+00	9.776890e-01	9.940589e-01	-3.187283e+16	1.503829e-02	
5.756560e+00	8.445168e+00	9.839235e-01	-6.661815e-03	-1.674174e-02	2.445145e+00	9.779921e-01	9.939717e-01	-3.143985e+16	1.552408e-02	
3.093255e+00	1.007018e+01	9.823754e-01	-1.582208e-02	-3.085974e-02	2.439039e+00	9.753707e-01	9.928697e-01	-3.518470e+16	2.994223e-02	
3.083977e+00	9.677751e+00	9.823501e-01	-1.712417e-02	-3.225661e-02	2.438993e+00	9.753255e-01	9.928492e-01	-3.524923e+16	3.153271e-02	
3.511962e+00	9.347337e+00	9.824135e-01	-1.820239e-02	-3.227228e-02	2.439221e+00	9.754090e-01	9.928701e-01	-3.513001e+16	3.198920e-02	
2.934946e+00	9.286450e+00	9.822594e-01	-1.818037e-02	-3.418380e-02	2.438741e+00	9.751911e-01	9.928040e-01	-3.544132e+16	3.343392e-02	
4.069654e+00	9.093671e+00	9.825612e-01	-1.838806e-02	-3.037184e-02	2.439753e+00	9.756447e-01	9.929607e-01	-3.479336e+16	3.064740e-02	
2.979318e+00	8.597785e+00	9.820252e-01	-1.968172e-02	-3.730826e-02	2.438035e+00	9.748517e-01	9.926952e-01	-3.592619e+16	3.643570e-02	
2.941658e+00	8.911095e+00	9.821441e-01	-1.908688e-02	-3.591053e-02	2.438390e+00	9.750190e-01	9.927454e-01	-3.568712e+16	3.512313e-02	
4.319444e+00	7.403797e+00	9.804851e-01	-1.711249e-03	-2.573280e-02	2.436242e+00	9.743611e-01	9.937541e-01	-3.662694e+16	2.229978e-02	
4.627410e+00	8.744450e+00	9.827496e-01	-1.718780e-02	-2.665160e-02	2.440555e+00	9.760175e-01	9.931498e-01	-3.426074e+16	2.736693e-02	
3.003310e+00	8.307966e+00	9.818751e-01	-1.996972e-02	-3.855702e-02	2.437621e+00	9.746644e-01	9.926562e-01	-3.619373e+16	3.751335e-02	
3.031880e+00	8.021552e+00	9.817218e-01	-1.982394e-02	-3.962451e-02	2.437292e+00	9.745168e-01	9.926608e-01	-3.640456e+16	3.828400e-02	
3.556593e+00	7.069786e+00	9.795248e-01	1.311302e-03	-3.246461e-02	2.433229e+00	9.730760e-01	9.934164e-01	-3.846290e+16	2.812672e-02	
3.047936e+00	7.708102e+00	9.814393e-01	-1.864412e-02	-4.041156e-02	2.436696e+00	9.742749e-01	9.927001e-01	-3.675010e+16	3.846560e-02	
5.154185e+00	7.776453e+00	9.824361e-01	-3.870264e-03	-1.547778e-02	2.441908e+00	9.767113e-01	9.941729e-01	-3.326954e+16	1.376510e-02	
5.305526e+00	8.589771e+00	9.834601e-01	-1.249786e-02	-2.083147e-02	2.443207e+00	9.771629e-01	9.935968e-01	-3.262445e+16	2.094373e-02	
2.991515e+00	7.395079e+00	9.809994e-01	-1.609806e-02	-4.074829e-02	2.435699e+00	9.738881e-01	9.927510e-01	-3.730272e+16	3.788342e-02	
2.847196e+00	6.874973e+00	9.803341e-01	-5.172722e-03	-3.733516e-02	2.434777e+00	9.736211e-01	9.931523e-01	-3.768414e+16	3.260624e-02	
2.907636e+00	7.117169e+00	9.806416e-01	-1.204150e-02	-3.984491e-02	2.435018e+00	9.736538e-01	9.928742e-01	-3.763748e+16	3.600224e-02	
5.951241e+00	8.150218e+00	9.844534e-01	4.280587e-04	-1.151330e-02	2.447928e+00	9.791441e-01	9.946068e-01	-2.979415e+16	9.917789e-03	
6.179290e+00	8.467526e+00	9.845125e-01	-6.286838e-04	-1.578711e-02	2.447341e+00	9.788856e-01	9.942846e-01	-3.016336e+16	1.360210e-02	
3.078240e+00	6.578372e+00	9.782233e-01	3.643053e-02	-2.156068e-02	2.432471e+00	9.726218e-01	9.942739e-01	-3.911165e+16	3.667918e-02	
6.649833e+00	8.355259e+00	9.852602e-01	9.439517e-03	-1.520318e-02	2.450621e+00	9.801833e-01	9.948471e-01	-2.830964e+16	1.539024e-02	
2.958396e+00	1.048835e+01	9.823509e-01	-1.434762e-02	-2.968538e-02	2.438934e+00	9.753521e-01	9.928755e-01	-3.521123e+16	2.846767e-02	
2.757734e+00	1.020513e+01	9.823165e-01	-1.523215e-02	-3.075615e-02	2.438851e+00	9.753006e-01	9.928579e-01	-3.528483e+16	2.963508e-02	
2.743712e+00	9.921269e+00	9.823029e-01	-1.615334e-02	-3.183133e-02	2.438831e+00	9.752731e-01	9.928436e-01	-3.532410e+16	3.082214e-02	
2.665574e+00	9.608962e+00	9.822661e-01	-1.704944e-02	-3.321256e-02	2.438746e+00	9.752144e-01	9.928210e-01	-3.540793e+16	3.223777e-02	
3.530038e+00	9.843499e+00	9.824661e-01	-1.657955e-02	-3.072051e-02	2.439334e+00	9.754857e-01	9.928950e-01	-3.502044e+16	3.013720e-02	
2.522782e+00	9.364164e+00	9.822037e-01	-1.758725e-02	-3.450147e-02	2.438572e+00	9.751233e-01	9.927913e-01	-3.553817e+16	3.344277e-02	
4.032234e+00	9.595257e+00	9.826193e-01	-1.697797e-02	-2.975221e-02	2.439845e+00	9.756992e-01	9.929575e-01	-3.471545e+16	2.956765e-02	
2.517228e+00	9.068746e+00	9.821291e-01	-1.833963e-02	-3.597749e-02	2.438348e+00	9.750072e-01	9.927486e-01	-3.570393e+16	3.487689e-02	
2.613371e+00	8.737372e+00	9.820430e-01	-1.920708e-02	-3.752666e-02	2.438084e+00	9.748717e-01	9.926976e-01	-3.589753e+16	3.641334e-02	
4.586949e+00	9.343589e+00	9.828459e-01	-1.635968e-02	-2.752866e-02	2.440626e+00	9.760418e-01	9.930772e-01	-3.422596e+16	2.763248e-02	
2.657775e+00	8.444176e+00	9.819366e-01	-1.981413e-02	-3.892139e-02	2.437770e+00	9.747196e-01	9.926502e-01	-3.611488e+16	3.772974e-02	
2.682027e+00	8.159721e+00	9.817944e-01	-2.020379e-02	-4.019137e-02	2.437379e+00	9.745392e-01	9.926102e-01	-3.637253e+16	3.886708e-02	
4.013606e+00	7.106321e+00	9.791858e-01	1.188555e-02	-2.524195e-02	2.433412e+00	9.732059e-01	9.938930e-01	-3.827731e+16	2.415509e-02	
4.795366e+00	7.478961e+00	9.807463e-01	2.752992e-03	-1.783819e-02	2.437498e+00	9.749328e-01	9.940724e-01	-3.581024e+16	1.560029e-02	
5.192077e+00	9.112275e+00	9.831427e-01	-1.371752e-02	-2.414430e-02	2.441704e+00	9.765249e-01	9.932687e-01	-3.353589e+16	2.395225e-02	
2.691119e+00	7.870780e+00	9.816494e-01	-2.019242e-02	-4.127773e-02	2.437047e+00	9.743888e-01	9.926037e-01	-3.658745e+16	3.970964e-02	
3.550684e+00	6.605577e+00	9.779610e-01	7.470391e-02	-5.782046e-03	2.436021e+00	9.732603e-01	9.951933e-01	-3.819959e+16	6.490842e-02	
2.627661e+00	7.290118e+00	9.812185e-01	-1.783240e-02	-4.185175e-02	2.436149e+00	9.740378e-01	9.926819e-01	-3.708887e+16	3.932825e-02	
2.672995e+00	7.576888e+00	9.814690e-01	-1.946231e-02	-4.195698e-02	2.436683e+00	9.742371e-01	9.926315e-01	-3.680412e+16	3.997495e-02	
5.698454e+00	7.799880e+00	9.834800e-01	6.229056e-03	-7.211052e-03	2.446157e+00	9.784444e-01	9.948799e-01	-3.079366e+16	8.209733e-03	
5.852651e+00	8.884783e+00	9.837754e-01	-7.902703e-03	-2.060923e-02	2.444111e+00	9.775455e-01	9.936674e-01	-3.207786e+16	1.902261e-02	
2.549113e+00	6.731264e+00	9.805991e-01	-5.372679e-03	-3.663844e-02	2.435706e+00	9.740027e-01	9.932731e-01	-3.713905e+16	3.202337e-02	
2.577588e+00	7.015262e+00	9.810016e-01	-1.442848e-02	-4.048001e-02	2.435909e+00	9.739869e-01	9.928494e-01	-3.716154e+16	3.715659e-02	
3.138773e+00	6.113663e+00	9.815890e-01	3.128121e-01	8.144138e-02	2.479320e+00	9.704393e-01	9.886412e-01	-4.222952e+16	2.799059e-01	
6.261434e+00	7.871972e+00	9.855411e-01	1.775033e-02	-3.794565e-03	2.453876e+00	9.814836e-01	9.958831e-01	-2.645195e+16	1.559793e-02	
6.516024e+00	8.812299e+00	9.842391e-01	3.184970e-05	-2.042082e-02	2.446009e+00	9.783189e-01	9.939849e-01	-3.097307e+16	1.758811e-02	
2.423047e+00	6.475396e+00	9.799429e-01	8.885761e-03	-3.022527e-02	2.435353e+00	9.739386e-01	9.938729e-01	-3.723051e+16	2.725463e-02	
2.660687e+00	6.163426e+00	9.789236e-01	1.114909e-01	1.277477e-02	2.443533e+00	9.748405e-01	9.958289e-01	-3.594218e+16	9.708822e-02	
2.456105e+00	5.709724e+00	1.019554e+00	6.426695e-01	2.276103e-01	2.657076e+00	9.716471e-01	9.530119e-01	-4.050410e+16	5.789271e-01	
6.818782e+00	7.993010e+00	9.863823e-01	2.686210e-02	-8.788166e-03	2.456828e+00	9.825694e-01	9.961344e-01	-2.490089e+16	2.426341e-02	
7.135092e+00	8.664985e+00	9.847873e-01	9.540438e-03	-2.280015e-02	2.448589e+00	9.793115e-01	9.944396e-01	-2.955495e+16	2.127050e-02	
7.783889e+00	8.689036e+00	9.841609e-01	1.470945e-02	-3.059542e-02	2.446928e+00	9.785371e-01	9.942857e-01	-3.066126e+16	2.923647e-02	
7.448178e+00	8.196779e+00	9.856052e-01	2.905533e-02	-2.157942e-02	2.453763e+00	9.812394e-01	9.955705e-01	-2.680082e+16	3.110379e-02	
8.214652e+00	8.362187e+00	9.833200e-01	2.824238e-02	-3.629696e-02	2.445962e+00	9.779546e-01	9.945436e-01	-3.149347e+16	3.963646e-02	
8.933505e+00	8.410189e+00	9.804353e-01	2.515339e-02	-4.686988e-02	2.436492e+00	9.740196e-01	9.934563e-01	-3.711480e+16	4.600402e-02	
9.587668e+00	8.482687e+00	9.776676e-01	1.670461e-02	-5.078005e-02	2.426881e+00	9.701677e-01	9.923287e-01	-4.261759e+16	4.638975e-02	
2.561515e+00	1.075102e+01	9.822770e-01	-1.333705e-02	-2.897553e-02	2.438686e+00	9.752671e-01	9.928637e-01	-3.533273e+16	2.754327e-02	
2.525837e+00	1.042443e+01	9.822712e-01	-1.437336e-02	-3.006515e-02	2.438693e+00	9.752509e-01	9.928530e-01	-3.535586e+16	2.877548e-02	
2.454298e+00	1.013180e+01	9.822581e-01	-1.525595e-02	-3.117379e-02	2.438678e+00	9.752258e-01	9.928407e-01	-3.539170e+16	2.996973e-02	
2.915369e+00	1.093865e+01	9.823253e-01	-1.280435e-02	-2.844418e-02	2.438821e+00	9.753304e-01	9.928793e-01	-3.524231e+16	2.693357e-02	
2.389241e+00	9.844764e+00	9.822318e-01	-1.608068e-02	-3.238375e-02	2.438621e+00	9.751823e-01	9.928230e-01	-3.545383e+16	3.122288e-02	
3.468863e+00	1.029592e+01	9.824650e-01	-1.497232e-02	-2.966821e-02	2.439300e+00	9.754950e-01	9.929056e-01	-3.500710e+16	2.868949e-02	
2.295704e+00	9.570760e+00	9.821877e-01	-1.676429e-02	-3.366702e-02	2.438509e+00	9.751155e-01	9.927995e-01	-3.554934e+16	3.247982e-02	
3.968858e+00	1.008587e+01	9.825964e-01	-1.531987e-02	-2.917054e-02	2.439721e+00	9.756675e-01	9.929484e-01	-3.476068e+16	2.844043e-02	
2.175344e+00	9.297376e+00	9.821330e-01	-1.733712e-02	-3.506788e-02	2.438364e+00	9.750341e-01	9.927719e-01	-3.566562e+16	3.378577e-02	
2.249123e+00	8.839761e+00	9.820396e-01	-1.860546e-02	-3.746017e-02	2.438088e+00	9.748791e-01	9.927085e-01	-3.588703e+16	3.612801e-02	
2.155884e+00	9.055465e+00	9.820798e-01	-1.793045e-02	-3.634645e-02	2.438211e+00	9.749500e-01	9.927401e-01	-3.578571e+16	3.500521e-02	
4.501834e+00	9.870001e+00	9.827873e-01	-1.502942e-02	-2.797297e-02	2.440348e+00	9.759341e-01	9.930267e-01	-3.437987e+16	2.740350e-02	
2.303617e+00	8.571158e+00	9.819621e-01	-1.935238e-02	-3.885700e-02	2.437851e+00	9.747567e-01	9.926623e-01	-3.606186e+16	3.749945e-02	
2.332214e+00	8.297252e+00	9.818635e-01	-2.005003e-02	-4.024390e-02	2.437567e+00	9.746150e-01	9.926176e-01	-3.626430e+16	3.884533e-02	
4.755396e+00	6.999770e+00	9.780230e-01	7.237217e-02	1.629932e-03	2.436243e+00	9.734257e-01	9.952994e-01	-3.796331e+16	6.270349e-02	
5.073291e+00	9.661007e+00	9.830291e-01	-1.354665e-02	-2.614683e-02	2.441174e+00	9.762933e-01	9.931479e-01	-3.386666e+16	2.540472e-02	
2.343188e+00	8.020640e+00	9.817425e-01	-2.065543e-02	-4.151643e-02	2.437246e+00	9.744604e-01	9.925825e-01	-3.648513e+16	4.006827e-02	
4.029176e+00	6.632877e+00	9.774554e-01	1.273949e-01	1.130171e-02	2.440765e+00	9.729593e-01	9.954001e-01	-3.862962e+16	1.108395e-01	
2.336891e+00	7.740483e+00	9.815915e-01	-2.101515e-02	-4.250426e-02	2.436857e+00	9.742845e-01	9.925560e-01	-3.673640e+16	4.097791e-02	
5.532584e+00	7.343414e+00	9.819817e-01	4.382264e-02	5.238452e-03	2.446375e+00	9.781532e-01	9.961012e-01	-3.120974e+16	3.805926e-02	
5.681174e+00	9.469515e+00	9.834232e-01	-1.036996e-02	-2.427472e-02	2.442578e+00	9.768894e-01	9.933561e-01	-3.301515e+16	2.276127e-02	
2.312565e+00	7.459576e+00	9.814656e-01	-2.095650e-02	-4.296498e-02	2.436591e+00	9.741709e-01	9.925676e-01	-3.689867e+16	4.131803e-02	
3.336696e+00	6.225989e+00	9.797003e-01	2.574923e-01	6.190605e-02	2.463745e+00	9.711806e-01	9.913038e-01	-4.117061e+16	2.294593e-01	
2.275567e+00	7.181443e+00	9.813450e-01	-2.017152e-02	-4.260426e-02	2.436426e+00	9.741177e-01	9.926354e-01	-3.697469e+16	4.074673e-02	
6.263453e+00	7.319445e+00	9.851715e-01	9.466044e-02	2.172799e-02	2.463891e+00	9.836417e-01	9.984471e-01	-2.336907e+16	8.338342e-02	
6.310034e+00	9.321115e+00	9.837411e-01	-5.546464e-03	-2.365056e-02	2.443790e+00	9.773960e-01	9.935500e-01	-3.229148e+16	2.093764e-02	
2.232719e+00	6.904742e+00	9.811139e-01	-1.750528e-02	-4.098767e-02	2.436131e+00	9.740476e-01	9.927977e-01	-3.707492e+16	3.853205e-02	
2.169656e+00	6.631069e+00	9.807760e-01	-1.066192e-02	-3.735923e-02	2.436049e+00	9.741119e-01	9.932052e-01	-3.698306e+16	3.359288e-02	
2.089635e+00	6.350030e+00	9.798375e-01	6.045850e-03	-2.926955e-02	2.435228e+00	9.739089e-01	9.939494e-01	-3.727296e+16	2.585761e-02	
2.851264e+00	5.730987e+00	1.115892e+00	1.153771e+00	3.933056e-01	3.079191e+00	9.653645e-01	8.651059e-01	-4.947924e+16	9.925919e-01	
6.876073e+00	7.430209e+00	9.876784e-01	1.007576e-01	1.150343e-02	2.472845e+00	9.870553e-01	9.993691e-01	-1.849243e+16	8.680556e-02	