 TITLE = "Edge Error"
 VARIABLES = "X", "Y","Estimate1" 
 ZONE T = "Domain", I=       15471  DATAPACKING=POINT, ZONETYPE=ORDERED
  3.774538990000000E-002   3.28774540000000       5.992306657041219E-003
  5.441815165000000E-002   3.28367272000000       5.225115258466042E-003
  3.243633455000000E-002   3.27099998000000       4.925297586467752E-004
  4.910909630000000E-002   3.26692730000000       2.813543949011291E-003
  2.161389640000000E-002   3.27445434000000       2.265527395995546E-003
  2.888663765000000E-002   3.27029072000000       5.574109135679759E-003
  9.032099750000000E-003   3.26187254000000       1.301058831420941E-002
  2.153209975000000E-002   3.26187254000000       4.038157031766012E-004
  1.250000000000000E-002   3.25000000000000       1.410623095422632E-002
  3.235453790000000E-002   3.25841818000000       6.865134562614205E-003
  3.750000000000001E-002   3.25000000000000       8.701453440824956E-003
  5.425455840000000E-002   3.25850912000000       3.375265328745068E-003
  8.962727919999999E-002   3.29199996000000       5.915321368527411E-003
  0.100000000000000        3.27516360000000       8.754448563486386E-003
  7.828123055000000E-002   3.27596931000000       3.193211631012983E-003
  8.865395135000001E-002   3.25913295000000       3.334930247470853E-004
  6.888183760000000E-002   3.27534548000000       5.197544818054662E-003
  6.365395135000000E-002   3.25913295000000       5.927833353176889E-003
  7.500000000000001E-002   3.25000000000000       8.421488134979763E-003
  6.479087244999999E-002   3.29199996000000       5.058889774354289E-004
  7.516359325000001E-002   3.30032720000000       9.092850252975390E-003
  7.500000000000001E-002   3.35065440500000       1.257889254698290E-002
  0.100000000000000        3.32549080000000       1.581070903120447E-002
  7.500000000000001E-002   3.32549080500000       6.029840976078426E-003
  2.500000000000000E-002   3.35065441000000       1.257889568856631E-002
  5.016359325000000E-002   3.32549080500000       9.647669619597234E-003
  2.516359325000000E-002   3.32549080500000       7.022005018645593E-003
  0.000000000000000E+000   3.27516360500000       5.598012731046465E-003
  9.032099750000000E-003   3.28703614500000       2.181679147492393E-003
  1.836373990000000E-002   3.28691096500000       3.301816146129577E-003
  2.191343680000000E-002   3.28762022500000       9.473102295071512E-004
  9.331640150000001E-003   3.32536563000000       5.563501788510618E-003
  9.331640150000001E-003   3.30020203000000       2.702300466687225E-003
  0.000000000000000E+000   3.32549081000000       6.535214902808360E-003
  3.449523340000001E-002   3.30020202500000       1.081085287036815E-003
  3.750000000000001E-002   3.38944015000000       9.582614592871909E-004
  5.440464600000000E-002   3.38562290000000       1.985809422381195E-004
  2.961242250000000E-002   3.37388481500000       2.377535519003208E-004
  4.651706849999999E-002   3.37006756500000       1.538591077561272E-003
  1.250000000000000E-002   3.36358299000000       4.702855572875217E-003
  4.211242250000000E-002   3.36095623500000       1.287537895762758E-003
  5.440464600000000E-002   3.35976574000000       4.587528951678651E-003
  0.100000000000000        3.37651156500000       1.624648747344764E-002
  7.940464600000000E-002   3.38562290000000       5.793092344335118E-003
  7.500000000000001E-002   3.40236873000000       6.097963701710954E-003
  0.100000000000000        3.42822589000000       6.805287196094206E-004
  7.500000000000001E-002   3.45408305000000       9.661646765846034E-004
  5.000000000000000E-002   3.42822589000000       7.205884654114134E-004
  0.000000000000000E+000   3.42822590500000       2.637499814861476E-004
  2.500000000000000E-002   3.45408305500000       8.365548312531665E-004
  1.250000000000000E-002   3.40883303000000       3.414806524590101E-004
  3.750000000000001E-002   3.43469018000000       9.587188343552507E-004
  0.000000000000000E+000   3.37651158000000       6.715341315568808E-003
  2.500000000000000E-002   3.39590444000000       9.556932866516630E-004
  0.000000000000000E+000   3.50728368500000       5.426607783726219E-004
  5.000000000000000E-002   3.48228368500000       7.858965291732560E-004
  2.500000000000000E-002   3.53548431500000       2.613912724422498E-005
  0.100000000000000        3.50728367500000       1.329014325122404E-003
  7.500000000000001E-002   3.53548431000000       5.342831265987712E-004
  5.000000000000000E-002   3.56048430500000       5.513815489122813E-004
  0.000000000000000E+000   3.61526312500000       5.468059160316459E-004
  0.100000000000000        3.61526312000000       6.604779682970203E-004
  5.000000000000000E-002   3.67004194000000       3.519116752588523E-004
  0.000000000000000E+000   3.72648432500000       3.997620404080480E-004
  0.100000000000000        3.72648432000000       3.828558934678615E-004
  5.000000000000000E-002   3.78292670500000       8.420075423293258E-005
  0.000000000000000E+000   3.84123236500000       2.139660320227039E-004
  0.100000000000000        3.84123236000000       2.680821778308196E-004
  5.000000000000000E-002   3.89953802000000       1.138803839910008E-005
  0.000000000000000E+000   3.95971798000000       7.022500233231693E-005
  0.100000000000000        3.95971798000000       1.175107848131697E-004
  5.000000000000000E-002   4.01989794000000       8.646265368257597E-006
  0.000000000000000E+000   4.08189520000000       2.263081829722264E-005
  0.100000000000000        4.08189520000000       4.181760052690235E-005
  5.000000000000000E-002   4.14389246000000       1.829346852541247E-005
  0.000000000000000E+000   4.20777652500000       2.331955746274846E-005
  0.100000000000000        4.20777652000000       4.309026078114831E-005
  5.000000000000000E-002   4.27166058500000       2.216349681737161E-005
  0.000000000000000E+000   4.33749664000000       2.601887256236206E-005
  0.100000000000000        4.33749663000000       4.773766932248746E-005
  5.000000000000000E-002   4.40333268500000       2.551630528885151E-005
  0.000000000000000E+000   4.47118198500000       2.870693437435320E-005
  0.100000000000000        4.47118197500000       4.919747172671941E-005
  5.000000000000000E-002   4.53903127500000       2.113849499069790E-005
  0.000000000000000E+000   4.60895149500000       2.958313750269149E-005
  0.100000000000000        4.60895149000000       5.053053954222465E-005
  5.000000000000000E-002   4.67887171000000       1.681839368490993E-005
  0.000000000000000E+000   4.75091725000000       3.046416594158657E-005
  0.100000000000000        4.75091725000000       4.993525307204042E-005
  5.000000000000000E-002   4.82296279000000       1.293775370016897E-005
  0.000000000000000E+000   4.89737756000000       2.675506788212247E-005
  0.100000000000000        4.89737756000000       4.358569669091576E-005
  5.000000000000000E-002   4.97179233000000       1.166719184332594E-005
  0.000000000000000E+000   5.04851713000000       2.547143332032289E-005
  0.100000000000000        5.04851712500000       4.056760847031699E-005
  5.000000000000000E-002   5.12524192500000       9.777136116008504E-006
  0.000000000000000E+000   5.20428193500000       2.242144217310656E-005
  0.100000000000000        5.20428192500000       3.553781007975303E-005
  5.000000000000000E-002   5.28332193500000       8.872622356293229E-006
  0.000000000000000E+000   5.36471871000000       2.170323707009965E-005
  0.100000000000000        5.36471870500000       3.376468734395799E-005
  5.000000000000000E-002   5.44611548000000       7.224056158431512E-006
  0.000000000000000E+000   5.52990935000000       1.913076031611069E-005
  0.100000000000000        5.52990934500000       2.980576698552931E-005
  5.000000000000000E-002   5.61370321500000       6.391658051884294E-006
  0.000000000000000E+000   5.70040603000000       1.858022076658810E-005
  0.100000000000000        5.70040602500000       2.857252272877990E-005
  5.000000000000000E-002   5.78710884000000       5.024898367861430E-006
  0.000000000000000E+000   5.87631590000000       1.625363406020705E-005
  0.100000000000000        5.87631589500000       2.514316328945109E-005
  5.000000000000000E-002   5.96552295500000       4.426566335926362E-006
  0.000000000000000E+000   6.05737650500000       1.562828764862088E-005
  0.100000000000000        6.05737650000000       2.389200956225697E-005
  5.000000000000000E-002   6.14923005000000       3.515027710870448E-006
  0.000000000000000E+000   6.24414684000000       1.363771998099557E-005
  0.100000000000000        6.24414684000000       2.099031855026423E-005
  5.000000000000000E-002   6.33906363000000       3.127845282571973E-006
  0.000000000000000E+000   6.43662111500000       1.316148250803425E-005
  0.100000000000000        6.43662111500000       2.001280154999589E-005
  5.000000000000000E-002   6.53417860000000       2.469598557067452E-006
  0.000000000000000E+000   6.63506480500000       1.146392224515291E-005
  0.100000000000000        6.63506480000000       1.758098541094943E-005
  5.000000000000000E-002   6.73595100500000       2.212416247992281E-006
  0.000000000000000E+000   6.83970080000000       1.114474468526402E-005
  0.100000000000000        6.83970079000000       1.688945539222975E-005
  5.000000000000000E-002   6.94345058500000       1.737898445938537E-006
  0.000000000000000E+000   7.05053603500000       9.677142928244358E-006
  0.100000000000000        7.05053602500000       1.482041868389536E-005
  5.000000000000000E-002   7.15762147500000       1.573921479877499E-006
  0.000000000000000E+000   7.26799734500000       9.508665399828296E-006
  0.100000000000000        7.26799733500000       1.437811210408157E-005
  5.000000000000000E-002   7.37837320500000       1.217049302221995E-006
  0.000000000000000E+000   7.49205507000000       8.283786777037011E-006
  0.100000000000000        7.49205506500000       1.266392992082732E-005
  5.000000000000000E-002   7.60573693000000       1.157807711646117E-006
  0.000000000000000E+000   7.72293439000000       7.993289059946287E-006
  0.100000000000000        7.72293438500000       1.207894521061221E-005
  5.000000000000000E-002   7.84013184500000       8.649585005545167E-007
  0.000000000000000E+000   7.96106418500000       5.302104637090759E-006
  0.100000000000000        7.96106418000000       8.269179589754988E-006
  5.000000000000000E-002   8.08199652000000       5.836572540245848E-007
  0.000000000000000E+000   8.20661622000000       2.082184947939525E-006
  0.100000000000000        8.20661622000000       3.567057014268262E-006
  5.000000000000000E-002   8.33123592000000       5.841983445455391E-007
  0.000000000000000E+000   8.45967864000000       3.083022213361582E-006
  0.100000000000000        8.45967863500000       4.507047366713592E-006
  5.000000000000000E-002   8.58812135500000       6.920110111492892E-007
  0.000000000000000E+000   8.72051443000000       5.103978599740683E-006
  0.100000000000000        8.72051442000000       7.332358345567312E-006
  5.000000000000000E-002   8.85290749500000       6.789856189583496E-007
  0.000000000000000E+000   8.98937067500000       5.645335887183107E-006
  0.100000000000000        8.98937067000000       8.032921716956222E-006
  5.000000000000000E-002   9.12583385000000       6.296033725818458E-007
  0.000000000000000E+000   9.26647997000000       5.818379856903283E-006
  0.100000000000000        9.26647996500000       8.279150695367233E-006
  5.000000000000000E-002   9.40712608500000       3.412255714216597E-007
  0.000000000000000E+000   9.55214802500000       3.351775589435376E-006
  0.100000000000000        9.55214801500000       5.053719169648143E-006
  5.000000000000000E-002   9.69716995500000       2.670874883379667E-007
  0.000000000000000E+000   9.84673271500000       2.060650525651396E-006
  0.100000000000000        9.84673270500000       3.214215493453663E-006
  5.000000000000000E-002   9.99629546500000       2.867608508282219E-007
  0.000000000000000E+000   10.1503894850000       5.491184412195512E-007
  0.100000000000000        10.1503894800000       9.880044011831701E-007
  5.000000000000000E-002   10.3044835000000       2.660250313832012E-007
  0.000000000000000E+000   10.4633112500000       4.721337910921587E-007
  0.100000000000000        10.4633112500000       5.277343284887672E-007
  5.000000000000000E-002   10.6221390000000       2.257515634248302E-007
  0.000000000000000E+000   10.7859427500000       1.474344520513044E-006
  0.100000000000000        10.7859427500000       2.059667377216908E-006
  5.000000000000000E-002   10.9497465000000       2.627385217727011E-007
  0.000000000000000E+000   11.1185289500000       1.704141033178270E-006
  0.100000000000000        11.1185289500000       2.343222317109198E-006
  5.000000000000000E-002   11.2873114000000       2.288675790473489E-007
  0.000000000000000E+000   11.4613112000000       1.756818904719133E-006
  0.100000000000000        11.4613112000000       2.415655268261222E-006
  5.000000000000000E-002   11.6353110000000       1.619378160786519E-007
  0.000000000000000E+000   11.8147351500000       2.342863464285740E-006
  0.100000000000000        11.8147351500000       3.081663142135154E-006
  5.000000000000000E-002   11.9941593000000       1.823001728590930E-007
  0.000000000000000E+000   12.1790702500000       2.414508352980170E-006
  0.100000000000000        12.1790702500000       3.175900564066744E-006
  5.000000000000000E-002   12.3639812000000       2.105822821507619E-007
  0.000000000000000E+000   12.5545853000000       2.464447852047014E-006
  0.100000000000000        12.5545853000000       3.097309475501171E-006
  5.000000000000000E-002   12.7451894000000       1.491432003795721E-007
  0.000000000000000E+000   12.9416800000000       1.123943909853910E-006
  0.100000000000000        12.9416800000000       1.368779124819189E-006
  5.000000000000000E-002   13.1381706000000       1.312679185437053E-007
  0.000000000000000E+000   13.3407297500000       1.530370767289796E-006
  0.100000000000000        13.3407297500000       1.801079180104141E-006
  5.000000000000000E-002   13.5432889000000       1.489891086966505E-007
  0.000000000000000E+000   13.7520878500000       1.602907673935452E-006
  0.100000000000000        13.7520878500000       1.856561116457125E-006
  5.000000000000000E-002   13.9608868000000       1.483218897735234E-007
  0.000000000000000E+000   14.1760873000000       1.652051089743247E-006
  0.100000000000000        14.1760873000000       1.825961148836750E-006
  5.000000000000000E-002   14.3912878000000       1.163751584178600E-007
  0.000000000000000E+000   14.6131728000000       8.896651334810604E-007
  0.100000000000000        14.6131728000000       8.107679691924070E-007
  5.000000000000000E-002   14.8350578000000       3.433794084782865E-008
  0.000000000000000E+000   15.0637812000000       8.025852687975297E-007
  0.100000000000000        15.0637812000000       3.140451141943458E-007
  5.000000000000000E-002   15.2925046000000       4.343949715256251E-007
  0.000000000000000E+000   15.5282714500000       2.142772269134362E-006
  0.100000000000000        15.5282714500000       1.781460742244703E-006
  5.000000000000000E-002   15.7640383000000       1.134815860951886E-007
  0.000000000000000E+000   16.0070191500000       2.208336868863018E-006
  0.100000000000000        16.0070191500000       1.835969922795548E-006
  5.000000000000000E-002   16.2500000000000       1.886682922486079E-007
  -7.99049009000000       0.109225080500000       3.919881012843984E-004
  -8.10000000000000       0.250000000000000       5.667330989791502E-004
  -7.99049009000000       0.359225080500000       2.879419425213392E-005
  -7.88988691500000       0.618734899500000       4.034825670210246E-003
  -8.10000000000000       0.750000000000000       1.183583404445797E-003
  -7.88988691500000       0.868734899500000       2.787302899177476E-003
  -7.87705057500000        1.11369564500000       4.774410091002458E-003
  -8.10000000000000        1.25000000000000       1.183583404445797E-003
  -7.87705057500000        1.36369564500000       2.484615263434046E-003
  -7.88162796500000        1.61813759000000       3.409557263127627E-003
  -8.10000000000000        1.75000000000000       8.845518221027715E-004
  -7.88162796500000        1.86813759000000       1.965490990738097E-003
  -8.10000000000000        2.25000000000000       5.762215755720578E-004
  -7.88317104500000        2.36979163500000       1.678449699008306E-003
  -7.88317104500000        2.11979163500000       2.584156654606058E-003
  -7.88232645500000        2.87224687000000       1.766414715065000E-003
  -7.88232645500000        2.62224687000000       2.152406610463704E-003
  -8.10000000000000        2.75000000000000       1.910028708054404E-004
  -7.87988375500000        3.37785703000000       1.939267179295545E-003
  -7.87988375500000        3.12785703000000       2.105731954054663E-003
  -8.10000000000000        3.25000000000000       1.985309279973738E-004
  -7.88000823500000        3.88762717500000       1.608360020345460E-003
  -7.88000823500000        3.63762717500000       2.155020647490691E-003
  -8.10000000000000        3.75000000000000       4.624197691314812E-004
  -7.88837120000000        4.39724859500000       6.098734348933783E-004
  -7.88837120000000        4.14724859500000       2.131383726480572E-003
  -8.10000000000000        4.25000000000000       8.300540833483779E-004
  -8.10000000000000        4.75000000000000       8.300540833483779E-004
  -7.90448582000000        4.89920743500000       1.216952220568988E-004
  -7.90448582000000        4.64920743500000       1.538268248555672E-003
  -7.92489135000000        5.13595670500000       1.395643329471357E-003
  -8.10000000000000        5.25000000000000       1.151874404523503E-003
  -7.92489135000000        5.38595670500000       5.145627461826413E-004
  -7.94951602000000        5.58100297000000       9.377994686978254E-004
  -8.10000000000000        5.75000000000000       1.151874404523503E-003
  -7.94951602000000        5.83100297000000       7.682357002101266E-004
  -7.70274082000000        5.81885443000000       1.316723993396405E-003
  -7.85322480000000        5.98785146000000       2.913373010213180E-004
  -7.52269785500000        5.76876992500000       1.367363992276401E-003
  -7.36131881000000        5.94504263500000       2.297933503487957E-004
  -7.27756706500000        5.73810964000000       1.433893647790394E-003
  -6.87659269500000        5.85432717500000       2.430572892184436E-004
  -6.82374562500000        5.61598551000000       1.468113824927622E-003
  -7.06334095000000        5.67604068500000       1.451053145802771E-003
  -6.38766330000000        5.44143364000000       2.308024207606432E-003
  -6.61414088500000        5.53986102000000       1.280878222268559E-003
  -6.41051978500000        5.69584462000000       1.108613075993420E-003
  -5.98182430000000        5.45575945500000       2.996397325120010E-003
  -6.00090872000000        5.18419323000000       4.095872758800780E-003
  -6.20312662000000        5.32585101500000       1.121581212147132E-003
  -5.83541144000000        4.99743337000000       3.912322260624266E-003
  -5.60855901500000        5.13596474500000       5.029233009248076E-003
  -5.66436405500000        4.81929644500000       9.901203653970498E-003
  -5.46976330000000        4.40357367500000       6.344579908949908E-003
  -5.50935770000000        4.64431359000000       7.796019109785271E-003
  -5.39791723000000        4.71708790500000       7.650787306105159E-005
  -5.25054786000000        4.51878266500000       5.976230785154256E-003
  -5.29014226000000        4.75952258000000       2.441712356314031E-003
  -5.15152135000000        4.06175753500000       1.055224275295714E-002
  -5.20750735500000        4.30946348500000       1.125088342826448E-002
  -5.08678688500000        4.31351139000000       2.130634850158782E-003
  -4.94292920500000        4.11263021000000       8.971979696153463E-003
  -4.99891521000000        4.36033616000000       8.516850525821722E-003
  -4.74433521500000        3.73999356500000       1.068072505533763E-002
  -4.83894951000000        3.92765850500000       1.643458607372801E-002
  -4.76044323500000        3.97179004000000       9.901849267028476E-003
  -4.59856358000000        3.78612455500000       2.834897378066557E-003
  -4.69317787500000        3.97378949500000       9.348998983422053E-003
  -4.38479211000000        3.51972655500000       5.712759251169090E-003
  -4.48853927000000        3.64252499000000       1.363286475420281E-002
  -4.42755106000000        3.66532557500000       9.130407561749498E-003
  -4.24118203000000        3.51546660500000       3.979041684505391E-004
  -4.34492919000000        3.63826504000000       9.823974995170279E-003
  -4.15550101500000        3.44421654000000       2.342977959896140E-003
  -3.96153984000000        3.38469855000000       2.084870542991689E-004
  -3.95848069500000        3.34050902000000       1.417487710664089E-003
  -4.10652370500000        3.29782699000000       6.499738431179704E-003
  -3.91256253000000        3.23830900000000       4.760444653171855E-003
  -3.74918148000000        3.21682560000000       1.534422082238052E-004
  -3.57099568000000        3.21577931000000       5.167238313776049E-003
  -3.55565764000000        3.15161388000000       4.820963232136260E-003
  -3.72868499500000        3.07051191000000       5.679739295077788E-003
  -3.55049919500000        3.06946562000000       1.038206516554696E-002
  -3.35789698500000        3.00677016500000       9.505046751480494E-003
  -3.19448064000000        3.11190172500000       4.355433742915606E-003
  -3.17490578500000        2.96810430000000       1.200167861763925E-002
  -2.96196649500000        2.91142985500000       1.233374874011964E-002
  -2.84142069000000        3.05200589500000       2.699050137774326E-003
  -2.79189774500000        2.89019989000000       1.302511626809020E-002
  -2.59125405500000        2.89563840000000       3.684716381164205E-003
  -2.51320528500000        3.02052219500000       8.770911943442686E-003
  -2.43310740000000        2.88538466500000       1.129766471056869E-002
  -2.27308329500000        2.89138491500000       9.885530632199767E-004
  -2.20901446000000        3.00887088500000       8.281584612102806E-003
  -2.12703912500000        2.88998734000000       1.146739593845751E-002
  -1.89505062000000        2.85660363000000       7.868862014271585E-003
  -1.93214344500000        2.90881150000000       7.668619201168011E-003
  -1.89346729500000        2.96776940000000       3.270067951378654E-003
  -1.82708652500000        2.97576293500000       5.732086745390165E-003
  -1.86417935000000        3.02797080500000       9.989843012876143E-003
  -1.99676520500000        3.01372529000000       3.871880877200432E-003
  -1.99834853000000        2.90255952000000       3.492478918971892E-003
  -1.61632857500000        3.05758929000000       3.016392200246197E-003
  -1.58762249500000        2.97367974000000       1.206381918290891E-002
  -1.64832477000000        2.96646794000000       4.168464633412259E-004
  -1.73741471500000        3.04317091500000       9.085835908717321E-003
  -1.70870863500000        2.95926136500000       1.283409367197104E-002
  -1.47800814000000        2.95613779000000       1.327774210113913E-005
  -1.44432915500000        3.07804964500000       4.275236888241503E-003
  -1.36671099500000        2.96938634500000       1.183335027868766E-002
  -1.26220977500000        2.99547960000000       1.501526627126167E-003
  -1.23116363500000        3.10342571000000       1.849382619418503E-003
  -1.16034140000000        3.00760711000000       5.082505015418225E-003
  -1.06450497700000        3.02592068500000       1.378218189648219E-003
  -1.03571492450000        3.12670138500000       4.153369357275021E-004
 -0.970924641500000        3.03706885000000       2.137009025529382E-003
 -0.882162619000000        3.05381439500000       3.436343245527065E-004
 -0.856242249000000        3.14807472500000       4.052598479042096E-004
 -0.796270279000000        3.06403957000000       7.328488453028440E-004
 -0.714736452500000        3.07991368000000       2.770712038073471E-004
 -0.691834768500000        3.16765038000000       3.529829450708074E-004
 -0.636221312000000        3.08926416000000       2.337183163686256E-004
 -0.561582561000000        3.10454361500000       4.888011469089150E-005
 -0.540870404000000        3.18561286000000       3.145373251957503E-004
 -0.489133337000000        3.11315561500000       4.354212889673686E-004
 -0.421583645000000        3.12819821000000       1.232373825644065E-004
 -0.402394201000000        3.20208279000000       2.229802388345325E-004
 -0.355556666000000        3.13605614000000       4.030286010311101E-004
 -0.297664529000000        3.15092625000000       1.791551291829979E-004
 -0.275472102000000        3.21719763000000       6.896209784385926E-005
 -0.236769409000000        3.15818316000000       2.618028584081098E-004
 -0.144172700500000        3.15081508000000       8.150488242450010E-005
 -0.178493507000000        3.17059272000000       1.174068676194908E-004
 -0.180256175500000        3.20467690000000       8.849855683226436E-005
 -0.135622856500000        3.19586080000000       1.123610464746176E-004
 -0.152281265500000        3.20800620500000       1.271759091906229E-005
 -0.141968753000000        3.21896774500000       1.710444889161591E-004
 -0.113963703500000        3.22229872000000       1.317648087303778E-003
 -0.127971062500000        3.22063246500000       2.316079338859311E-005
 -0.116624422000000        3.23610884500000       1.338151768151683E-003
 -0.144629471500000        3.23277787000000       3.832245657183211E-005
 -0.186602072000000        3.22778384500000       2.475917789655303E-005
 -3.547212690000000E-002   3.20592231500000       7.130427215566203E-003
 -2.031050265000000E-002   3.17551316500000       1.313288585789256E-002
 -3.903008455000000E-002   3.18381436000000       8.423726319697813E-005
 -7.840438590000000E-002   3.22599930500000       6.483418968488141E-003
 -6.324276164999999E-002   3.19559015500000       6.236271667203710E-003
 -1.243494510000000E-002   3.21045968500000       9.556973697019865E-003
 -3.403523375000000E-002   3.22075240000000       9.443309614099726E-004
 -2.971763385000000E-002   3.23359096500000       7.615018342251935E-003
 -4.058672600000000E-003   3.23664912500000       1.181827202184119E-002
 -1.688813285000000E-002   3.23511987500000       4.001312475549556E-003
 -1.282946025000000E-002   3.24847075000000       1.466556555331128E-002
 -3.848842150000000E-002   3.24541259000000       8.340965090301505E-003
 -6.414750440000000E-002   3.24235545000000       8.340790478359872E-003
 -5.275481565000000E-002   3.22905359500000       5.763666275565317E-003
 -6.558439755000001E-002   3.22752536500000       2.046259997631905E-003
 -8.979707465000000E-002   3.23930116000000       1.254244423483435E-003
  5.642401205000000E-002   3.20778597000000       1.500950778059109E-003
  7.190449004999999E-002   3.20752927000000       4.374735673423446E-003
  7.048511300000000E-002   3.20225842000000       6.358843673210866E-003
  5.992581540000000E-002   3.18415144000000       8.460557334185093E-003
  7.540629339999999E-002   3.18389474000000       1.423448057020239E-002
  4.883002625000001E-002   3.21793188500000       2.893055923592209E-003
  4.741064920000000E-002   3.21266103500000       4.280706008623425E-004
  3.134493260000000E-002   3.22816222500000       3.158482049707123E-003
  3.358451805000000E-002   3.21757231000000       5.073515608617735E-003
  2.511278725000000E-002   3.22292758500000       3.877709782186690E-003
  1.143660090000000E-002   3.24175875000000       1.207760363480320E-002
  1.367618635000000E-002   3.23116883500000       6.825197434997267E-003
  4.609968425000000E-002   3.18906271500000       4.598646903921748E-003
  4.117850385000000E-002   3.20742639500000       3.701821122527253E-003
  9.298279549999999E-002   3.22600086000000       1.126254877666690E-002
  6.798279550000000E-002   3.22600086000000       1.114621687146160E-003
  5.079691000000000E-002   3.23864703500000       1.696353718632371E-003
  3.829691000000000E-002   3.23864703500000       6.902142780699663E-003
  2.393660090000000E-002   3.24175875000000       2.449083778658261E-003
  3.240833170000000E-002   3.23640347500000       2.337802380873648E-003
  4.570524170000000E-002   3.22505051000000       3.339411722760056E-003
  5.471860455000000E-002   3.22017544500000       2.407040610581980E-004
  6.877970550000000E-002   3.21464789500000       5.192744750503461E-003
  0.183416512000000        3.29026450500000       8.831143527473367E-003
  0.147973889000000        3.28867140500000       8.854070773361811E-003
  0.135442623000000        3.30192030000000       1.328955919892214E-002
  0.159962930500000        3.31362787000000       3.551450591159445E-003
  0.124520307500000        3.31203477000000       1.331773897908670E-002
  0.124520307500000        3.33719837000000       6.291359391258100E-003
  0.130110428500000        3.25382042000000       1.289072548717217E-002
  0.130110428500000        3.27898402000000       4.326823543940858E-003
  0.178084317500000        3.26732822500000       9.953882274993544E-003
  0.147601959000000        3.42883626500000       5.671067411474015E-003
  0.147601959000000        3.40297910500000       1.179258250314376E-002
  0.126359940000000        3.36215366500000       9.550768535590573E-003
  0.126359940000000        3.38801083000000       2.195283223133803E-003
  0.173961899000000        3.38862120500000       4.742688773602700E-003
  0.130704062000000        3.47856190500000       1.798117858730587E-003
  0.130704062000000        3.53176253000000       1.108839525553265E-004
  0.199154696500000        3.51488452000000       1.441410687468573E-003
  0.168450634500000        3.54360629000000       2.209635084477410E-003