 TITLE = "Adapted Mesh"
 VARIABLES = "X", "Y"
 ZONE T = "Domain", N=        8378 E=       16355 
 DATAPACKING=POINT, ZONETYPE=FEQUADRILATERAL
  -2.10000000000000        3.00000000000000     
  -2.10000000000000        3.10069025127545     
  -2.10000000000000        3.20405750283552     
  -2.10000000000000        3.31030393476383     
  -2.10000000000000        3.41961685800252     
  -2.10000000000000        3.53227920422006     
  -2.10000000000000        3.64882315202082     
  -2.10000000000000        3.76876964884445     
  -2.10000000000000        3.89227008106708     
  -2.10000000000000        4.01946611341300     
  -2.10000000000000        4.15049062796452     
  -2.10000000000000        4.28546850220516     
  -2.10000000000000        4.42451731060594     
  -2.10000000000000        4.56774795142357     
  -2.10000000000000        4.71526519818089     
  -2.10000000000000        4.86716819463649     
  -2.10000000000000        5.02395803683984     
  -2.10000000000000        5.18557331220361     
  -2.10000000000000        5.35192283788675     
  -2.10000000000000        5.52308341431143     
  -2.10000000000000        5.69963374077613     
  -2.10000000000000        5.88166415007517     
  -2.10000000000000        6.06877960659704     
  -2.10000000000000        6.26205545693665     
  -2.10000000000000        6.46079380560404     
  -2.10000000000000        6.66584698833383     
  -2.10000000000000        6.87669579439225     
  -2.10000000000000        7.09444547647180     
  -2.10000000000000        7.31846081865042     
  -2.10000000000000        7.54910460981467     
  -2.10000000000000        7.78713592357796     
  -2.10000000000000        8.03223753476975     
  -2.10000000000000        8.28469508523349     
  -2.10000000000000        8.54477642102270     
  -2.10000000000000        8.81273320551595     
  -2.10000000000000        9.08880234362241     
  -2.10000000000000        9.37320724316665     
  -2.10000000000000        9.66615893706459     
  -2.10000000000000        9.96796543512234     
  -2.10000000000000        10.2791454374489     
  -2.10000000000000        10.5995270038615     
  -2.10000000000000        10.9296704514065     
  -2.10000000000000        11.2697766836192     
  -2.10000000000000        11.6202444308549     
  -2.10000000000000        11.9811492753098     
  -2.10000000000000        12.3530958920075     
  -2.10000000000000        12.7363474259071     
  -2.10000000000000        13.1311469763581     
  -2.10000000000000        13.5378652718700     
  -2.10000000000000        13.9568516037717     
  -2.10000000000000        14.3885469335601     
  -2.10000000000000        14.8334197484996     
  -2.10000000000000        15.2915911294826     
  -2.10000000000000        15.7637439568589     
  0.000000000000000E+000   16.2500000000000     
  -2.00000000000000        2.99999999535898     
  -2.00397100576737        3.09901412170113     
  -2.00000000000000        3.20405749819450     
  -2.00000000000000        3.31030393012281     
  -2.00000000000000        3.41961685336150     
  -2.00000000000000        3.53227919957904     
  -2.00000000000000        3.64882314737980     
  -2.00000000000000        3.76876964420343     
  -2.00000000000000        3.89227007642606     
  -2.00000000000000        4.01946610877198     
  -2.00000000000000        4.15049062332350     
  -2.00000000000000        4.28546849756414     
  -2.00000000000000        4.42451730596492     
  -2.00000000000000        4.56774794678255     
  -2.00000000000000        4.71526519353987     
  -2.00000000000000        4.86716818999547     
  -2.00000000000000        5.02395803219881     
  -2.00000000000000        5.18557330756259     
  -2.00000000000000        5.35192283324573     
  -2.00000000000000        5.52308340967041     
  -2.00000000000000        5.69963373613511     
  -2.00000000000000        5.88166414543415     
  -2.00000000000000        6.06877960195602     
  -2.00000000000000        6.26205545229563     
  -2.00000000000000        6.46079380096302     
  -2.00000000000000        6.66584698369281     
  -2.00000000000000        6.87669578975123     
  -2.00000000000000        7.09444547183078     
  -2.00000000000000        7.31846081400940     
  -2.00000000000000        7.54910460517365     
  -2.00000000000000        7.78713591893694     
  -2.00000000000000        8.03223753012873     
  -2.00000000000000        8.28469508059247     
  -2.00000000000000        8.54477641638168     
  -2.00000000000000        8.81273320087493     
  -2.00000000000000        9.08880233898139     
  -2.00000000000000        9.37320723852563     
  -2.00000000000000        9.66615893242357     
  -2.00000000000000        9.96796543048132     
  -2.00000000000000        10.2791454328079     
  -2.00000000000000        10.5995269992205     
  -2.00000000000000        10.9296704467654     
  -2.00000000000000        11.2697766789782     
  -2.00000000000000        11.6202444262139     
  -2.00000000000000        11.9811492706687     
  -2.00000000000000        12.3530958873665     
  -2.00000000000000        12.7363474212661     
  -2.00000000000000        13.1311469717171     
  -2.00000000000000        13.5378652672290     
  -2.00000000000000        13.9568515991307     
  -2.00000000000000        14.3885469289191     
  -2.00000000000000        14.8334197438586     
  -2.00000000000000        15.2915911248416     
  -2.00000000000000        15.7637439522179     
  -2.00000000000000        16.2499999953590     
   64.3600222706514       0.626078326545446     
  -7.87939418746997       0.215135784461487     
  -7.80292488981778        5.66125809249042     
   3.57264900373541        8.60603170312038     
   3.68975357654486        8.26318619673530     
   4.28615861902291        8.25089744465026     
   3.96482831449038        7.79231637691727     
   3.60329265013193        8.91807124247626     
   3.24286373855012        9.04770593410178     
   3.97183705786370        8.64740105113348     
   3.29691346921774        8.45471976495876     
   3.26889417627554        8.75705524243226     
   3.28634071681645        8.19171770381177     
   3.41749332609621        7.90966907621993     
   3.92776166605116        7.37713719494741     
   4.57392871898621        7.83140816033755     
   4.88185060356162        8.23036354330835     
   3.18693732153381        6.88782483434467     
   3.47141754863933        7.48605086979177     
   3.25241227661850        7.18163336398928     
   5.41510832313452        8.16474239016711     
   5.69863561653201        8.43648047783740     
   3.07909561000263        10.0798332843362     
   3.06430102099624        9.68774648606806     
   3.48807463240784        9.35729521495620     
   2.91115562741212        9.29628721239901     
   4.04516421435768        9.10375108882841     
   2.95230708834198        8.60534650823501     
   2.91456266061434        8.92001364367859     
   4.35707485324203        7.44025647177824     
   4.60217374257174        8.75437170576444     
   2.97994945494626        8.31375732560335     
   3.01675714425990        8.02515040974763     
   3.66412253244125        7.05481872035951     
   3.04654457266737        7.70794254961586     
   5.11119015604432        7.80380113356708     
   5.26868932691213        8.59338711229988     
   3.00071361509156        7.38774551022116     
   2.83249645416739        6.85205735570412     
   2.91588830792263        7.09922997350984     
   5.83765593325741        8.14793797896247     
   6.11992932543276        8.42003162777089     
   2.92068435995208        6.53420142674211     
   6.59023721157319        8.34988918799827     
   2.95038334259174        10.4970478089282     
   2.74650394554980        10.2143647759685     
   2.72865615985272        9.93107008290164     
   2.64691089409772        9.61911844472036     
   3.51260558148239        9.85338311896308     
   2.50266385174231        9.37433952227251     
   4.01249375417316        9.60504106495860     
   2.49563714062351        9.07801869421242     
   2.58970273542292        8.74493434483785     
   4.56529526955583        9.35240354167622     
   2.63528742360621        8.44962370049844     
   2.66363398538929        8.16269998344143     
   4.15468672019874        7.12515298785701     
   4.81018141241423        7.48693137155659     
   5.16557730392951        9.11654501037885     
   2.67943967979054        7.87087481501207     
   3.51547285487388        6.61307708891023     
   2.62692546779740        7.28308180142235     
   2.66844318754279        7.57346657550713     
   5.65647144375641        7.79481422655807     
   5.81557209964711        8.87444919923297     
   2.54428821590440        6.73656694826462     
   2.57504951914729        7.00802509583144     
   2.97455871389191        6.14139651180156     
   6.25970359929473        7.94270847215048     
   6.47994381732801        8.78727390403507     
   2.48107522007010        6.49311702802274     
   2.54685955761359        6.21420506708146     
   2.37647785332383        5.76283384815473     
   6.93287117761643        8.01802556209345     
   7.11808182725049        8.60010918114638     
   7.74577669079917        8.63804304850730     
   7.58599368894405        8.15475391344466     
   8.30084190536351        8.37626087679986     
   9.05982345512326        8.39214169392695     
   9.71695178145926        8.44710373958184     
   2.55770271031424        10.7579816333301     
   2.51896637089789        10.4325199573071     
   2.44432296862241        10.1408387539031     
   2.91209984587909        10.9462073192214     
   2.37627119023214        9.85460396140206     
   3.45795422143585        10.3054918169148     
   2.28070461810267        9.58106313230533     
   3.95572395247290        10.0956967428970     
   2.16001591317729        9.30752827293222     
   2.23122769348227        8.84763915431191     
   2.13955073394751        9.06480866331946     
   4.48667998614486        9.87942648207511     
   2.28579721532261        8.57680901199127     
   2.31636405802969        8.30026615357356     
   4.68278055241796        7.04447872714442     
   5.05531312893414        9.66841082153675     
   2.33085798116459        8.02089112509351     
   4.11799480452541        6.72431214408174     
   2.32883054967569        7.73814084175272     
   5.29552010725497        7.33305798917671     
   5.65889190774653        9.47126232353414     
   2.30836347525148        7.45529803828901     
   3.26552563615475        6.34323325230418     
   2.27458485827928        7.17696538222360     
   5.98289567330632        7.39621932415521     
   6.28542751824468        9.31319169974018     
   2.23824947330675        6.90329814823992     
   2.20041766481321        6.63342007496447     
   2.17511352038896        6.35351758248593     
   2.78051344758201        5.75060778175992     
   6.65751919230364        7.49119601367336     
   6.91498667414416        9.18400743671570     
   7.34123066183485        7.58773816243228     
   7.53651173530175        9.08711205124752     
   2.14490935895365        6.03084140229139     
   2.28778424048222        5.35173793653579     
   1.94078328975533        5.71966789377768     
   8.14488656730239        8.99036244656101     
   8.02994418984037        7.72593407534434     
   1.83935597751417        5.03146660351050     
   1.87405444859805        5.35450813974214     
   8.77110866198929        8.90674343013607     
   8.72136363612876        7.84349400794688     
   9.39387031762782        8.88900910618621     
   9.40734863268350        7.90796111688492     
   15.8469601768807        8.35316225812395     
   15.3441744759078        8.33001158615741     
   14.7524141085483        8.31733778532260     
   14.1266039628058        8.31479484672568     
   13.4687350842866        8.32328467752376     
   12.7338716752515        8.35110417001356     
   12.2491828847404        8.63406935651901     
   12.0589071842507        8.16799930892445     
   11.7404498941852        8.61031450420818     
   11.4331314356322        8.09860749729349     
   11.1222175385612        8.60297174923069     
   10.7717952897254        8.05359664010919     
   10.3989280665894        8.62275769041062     
   10.0873930590521        7.98681440032874     
   9.90913452509691        8.90177343122561     
   2.48989990706220        11.4796572402254     
   2.46989925884032        11.1388628979317     
   2.25901083557436        10.8998256179285     
   2.23168792959069        10.6405569640872     
   2.17621879144484        10.3526231671291     
   2.83763918715692        11.3518658027598     
   2.10961477059264        10.0690887860575     
   3.37197230044774        10.7519213730030     
   2.03511279187144        9.79644078879202     
   1.94922907342963        9.54472906506910     
   3.86625613761684        10.5652948477800     
   1.91079697996249        8.93659394756167     
   4.38380092538048        10.3767556925516     
   1.88474931841674        9.16359784505084     
   1.85327688593275        9.35629271494496     
   1.94868446866284        8.69266219647767     
   1.97556567014078        8.43174267548318     
   4.93018398773588        10.1905970481414     
   1.98952911250334        8.16368182496230     
   4.41474905358370        6.38327490294686     
   4.99061288685476        6.61751818260427     
   5.50505869582428        10.0140300526084     
   1.97982329767918        7.61724435283396     
   3.95132256262408        6.22471810336588     
   1.99098851720905        7.89157730589201     
   5.63711260486807        6.86550658041501     
   6.10267806513118        9.85640822072534     
   1.95743651555606        7.34287141890814     
   1.92758856222200        7.06971429741743     
   1.89317981039312        6.79712004027695     
   3.17585338959014        5.87510338966639     
   6.35516595729419        6.97006674457972     
   6.71282840090130        9.72267722373765     
   7.03078122263041        7.05064445750524     
   7.32538455166273        9.61159142308417     
   1.80572332749990        6.23494939207226     
   2.75189302710788        5.37507793663109     
   1.85519524936464        6.52108852294081     
   7.93458728901068        9.51699441003866     
   7.76169062964200        7.10219038596956     
   1.43066836131961        5.33879528772692     
   1.71239430347902        5.94860964611045     
   2.12686708299693        4.98314763368974     
   1.58486787816889        5.69870594383455     
   8.54218820341007        9.43553021715316     
   8.41589310916326        7.30676852423570     
   1.47140066733990        4.94677541648781     
   1.69672694811675        4.65998009056334     
   9.14509794450340        9.37552641975094     
   9.06030973203049        7.36780788067352     
   21.1558114623972        8.29280171837283     
   20.7449355737489        8.43069040030187     
   20.2221256729449        8.34195356642465     
   19.5386218585462        8.29578960160649     
   18.7649884479285        8.25818737568214     
   18.2054277568918        7.95930719997933     
   18.0995711940481        8.45231050862250     
   17.6797263781806        7.99420896146177     
   17.4734638007652        8.53324289774320     
   17.0458569288013        8.02648308393692     
   16.8313779849441        8.60018782078228     
   16.3185998483797        8.06784471744243     
   16.2272824499949        8.70395847140364     
   15.6418487324901        7.89226105857938     
   15.6695011440422        8.78971857563544     
   15.0270260051883        7.83116401511701     
   15.0949045300875        8.81512842445837     
   14.4902499249474        8.83140249247720     
   14.3998935050628        7.80072496966733     
   13.8640565104415        8.85355829453822     
   13.7527906112054        7.78188882690272     
   13.2227175509313        8.89447029227208     
   13.0803406864870        7.76327048253592     
   12.6197311918555        8.98726406811734     
   12.4041935805579        7.70639188551838     
   12.0620540552201        9.07152792431759     
   11.7543361638040        7.62694922857438     
   11.4838030429185        9.10450592714979     
   11.1091102957415        7.54858812705569     
   10.8687400604613        9.14564435517538     
   10.4343973815057        7.47965970982834     
   10.2766342507316        9.23895571385423     
   9.74535850741921        7.42684670324187     
   9.72167143622312        9.32897151178915     
   1.33407114131485        4.58427723129933     
   2.37946930697032        12.0551414823631     
   2.27239364825344        11.7317645682796     
   2.16693383886362        11.4192815040822     
   2.06461697751152        11.1226224286370     
   1.96965146371330        10.8444783367007     
   1.90562598733110        10.5624042201307     
   2.70236839364406        11.7611085337368     
   3.28111819493555        11.1872821395146     
   1.84226504824859        10.2781019856812     
   1.77674192647212        10.0008969732650     
   3.75776261598091        11.0195609885178     
   4.26192686172735        10.8529240849259     
   1.61640646638194        9.27670343670225     
   1.64740886968591        9.49923656943437     
   1.70979083178851        9.73815635441964     
   1.61854242615370        9.04933368742499     
   1.63128140515670        8.80984706954909     
   1.64627133483106        8.55969865969200     
   4.79148389680378        10.6882919780098     
   1.65588319165602        8.30134285053447     
   5.08724869585582        6.06611088602948     
   5.34574057628718        10.5296088142424     
   4.45907856207181        5.89221800200184     
   1.65750020503705        8.03792978493212     
   5.83364490624759        6.32840538629309     
   5.92147550346846        10.3822615299206     
   1.61128020956793        7.23369371551941     
   3.85654656523519        5.65449153125932     
   1.63457844463304        7.50288694461540     
   1.65034730545345        7.77131510337294     
   6.38381666629177        6.38485815115091     
   6.51271201600683        10.2508496004811     
   6.98412205355457        6.46129517306611     
   7.11223301382678        10.1370747883889     
   3.18412839667941        5.40036833030214     
   1.54536412441455        6.69288715938550     
   1.58161585703214        6.96399524264940     
   7.50687435566731        6.49095259242524     
   7.71394529871156        10.0395901650754     
   2.52375281519407        5.00182839741208     
   1.34941860928281        5.87302494240836     
   1.43370351941537        6.14361987638825     
   1.49890275632802        6.41887888724383     
   8.31441940603260        9.95607845688519     
   8.00399075073323        6.66530074184535     
   1.02327712601753        5.25259988017401     
   2.13332959696970        4.54741981799300     
   1.27658186553053        5.59565204742857     
   8.91098104314183        9.88574128430905     
   8.64479967223159        6.83888334345502     
   29.3594121664470        8.30491018468845     
   28.7755243207756        8.27480485326626     
   28.0916438202090        8.25793191076044     
   27.3718097919349        8.25359506826933     
   26.6185396261542        8.26220255324446     
   25.7804303527040        8.29321842413405     
   25.2014333757048        8.62426482912609     
   25.0375428179829        8.07868612091004     
   24.3563624993986        8.00268204210488     
   24.6417045555366        8.59054782296214     
   23.9846275767818        8.56869724888988     
   23.6611822709174        7.96293779276451     
   23.2907462329895        8.55679911462315     
   22.9439254528340        7.93471817997639     
   22.5618613399083        8.55196026672021     
   22.1996891378347        7.90354227549010     
   21.7516844505104        8.55172224238897     
   21.4610861113419        7.83799866080800     
   21.1031737136428        8.80053824427341     
   20.6909004231395        7.84270735246098     
   20.5234771778070        8.87561921155959     
   19.9002129941771        7.72738112449240     
   19.9003625734668        8.88061042635765     
   19.1821077605435        7.68163729980976     
   19.2228966982403        8.88859083885202     
   18.5215159377899        7.59118686591030     
   18.5427398510710        8.94632085976634     
   17.9138360778879        7.51281288449279     
   17.8918547042380        9.03363161761139     
   17.2948144485952        7.49577972562057     
   17.2559945387586        9.10569319015052     
   16.6349815866995        7.48438907139919     
   16.6339821483799        9.17828773788402     
   15.9634686488688        7.43275833650039     
   16.0337862132997        9.24954704733752     
   15.3124752726090        7.35908140479811     
   15.4431766170982        9.30182337652697     
   14.6737541135575        7.30892866896642     
   14.8446287704260        9.33619599040143     
   14.2343083736195        9.36740926653739     
   14.0295540632059        7.27199729510529     
   13.6172346694021        9.40611636700335     
   13.3739843919259        7.23907923589061     
   13.0078887905537        9.46154209334157     
   12.7094656507028        7.19938109336503     
   12.4178823143219        9.52661829862810     
   12.0464748310209        7.15051243706484     
   11.8358826886012        9.58196644082138     
   11.4288331256096        7.10930269258724     
   11.2460839305066        9.63033848321544     
   10.7835631646647        6.94125901937569     
   10.6550844456689        9.69042696440887     
   10.0573572914490        6.93682630169801     
   10.0752749392664        9.76083626326548     
   9.37041661397449        6.89671327564070     
   9.49829465796492        9.82508138704967     
  0.949565588648214        4.90022795846393     
   1.74017230353863        4.36959883133098     
  0.859998684826010        4.49210824104769     
   1.34774575235375        4.14286713512766     
  0.430847723944692        4.29635120475463     
  0.570143442060974        4.10737076500151     
  0.961957411274409        4.10190966009360     
   2.09548856839910        12.3412056770554     
   1.99648414623476        12.0002856828575     
   1.89970929510922        11.6778820682404     
   1.80554747439252        11.3677199626817     
   1.71709348307473        11.0688919684813     
   1.64007199221829        10.7768362411946     
   3.16920672464881        11.6045822937106     
   1.57331775069062        10.4875342364157     
   3.63559628585207        11.4579037129583     
   2.71056748867223        12.1116107854956     
   1.51050521188335        10.2033567736732     
   4.12604467513515        11.3118374239796     
   1.39637370580384        9.66841331312396     
   1.45057672896727        9.92896265045774     
   1.35582605004796        9.42127752600518     
   1.33484262899401        9.18031705702999     
   1.32901872007607        8.93767238285315     
   4.64113540375092        11.1668295594939     
   1.33014316438302        8.69003086536249     
   1.33216481308408        8.43714968779910     
   5.17917055007358        11.0252787423390     
   4.80153663854449        5.54205656100655     
   5.40531107743452        5.69736593462354     
   5.73760428297264        10.8907479454899     
   1.33102499184523        8.17994567610237     
   4.25121160630979        5.30791699250564     
   1.31240409321372        7.65693513132266     
   1.32471162997178        7.91956029404152     
   6.05915775225937        5.83803933997058     
   6.31240764415074        10.7668425867159     
   6.92246369145929        6.03817776643216     
   6.89839457812461        10.6559999861383     
   3.60468578130484        5.06196010822978     
   1.23815497688838        6.86220958330490     
   1.26939321662814        7.12788765522433     
   1.29395562639093        7.39285928885572     
   7.51384347410176        6.02693728241933     
   7.49030384705652        10.5588469676722     
   3.04381056374513        5.03301220950502     
   1.14591596010756        6.32928718940215     
   1.19823139491513        6.59581619901113     
   8.08387472328813        10.4745534364263     
   8.04165633084368        6.12744530328844     
   2.54943367261233        4.71647892097377     
  0.997606825225513        5.79669978653876     
   1.07844676807681        6.06385365936266     
   8.67598989269463        10.4016548468070     
   8.64958740966672        6.20398052322188     
   37.3912844627960        8.30374512421244     
   36.7558613524155        8.26048868997256     
   36.0065006775947        8.22574653608886     
   35.2040258014712        8.19347322048883     
   34.3039772419714        8.14778322501208     
   33.6826107144702        7.78911135270049     
   33.5013050628088        8.37500290135734     
   33.0748954917108        7.82672751132097     
   32.7698160007719        8.45903382848098     
   32.3625852664295        7.85639895779491     
   32.0276850758536        8.50950140464191     
   31.6126049584287        7.88185042793603     
   31.2699874297513        8.55460410060471     
   30.8278778724606        7.90998993130685     
   30.4994675821014        8.61405062930810     
   29.9552904871191        7.95539468312673     
   29.7755945418383        8.72973106283708     
   29.1768061316772        7.74131227940915     
   29.1136983700862        8.82781078674762     
   28.4671429851932        7.66872194903265     
   28.4443960469740        8.85355109760035     
   27.7460444650373        7.63421019676084     
   27.7449979185767        8.86879632417626     
   27.0236142665271        8.89100036221792     
   27.0061278224826        7.61387181249572     
   26.2865389166892        8.93466768325157     
   26.2427529445768        7.59336491675876     
   25.5915308502368        9.03781108767610     
   25.4843057223204        7.52780901447277     
   24.7593464930659        7.43949622844655     
   24.9555395272663        9.12707686419983     
   24.3131633608336        9.14724805114288     
   24.0497102650188        7.38071809942513     
   23.6407593167279        9.15625670124020     
   23.3337514421771        7.33762878714520     
   22.9446209784925        9.16913898084774     
   22.6027779489020        7.29734707833305     
   22.2279346494577        9.19730113870745     
   21.8562007637683        7.24762408900102     
   21.5331092153864        9.27817630555763     
   21.0836144541451        7.18831825931730     
   20.8884118329515        9.37456471760393     
   20.2324522483056        7.07851701423747     
   20.2571029087401        9.42632649404221     
   19.4905775114189        7.12408875837721     
   19.6096904979708        9.45776159910161     
   18.8273380943688        7.09771902482169     
   18.9502106989939        9.49754400566709     
   18.1835700973400        7.04715206442859     
   18.2959735709459        9.55479743851626     
   17.5463123168652        7.00343148145306     
   17.6542256546862        9.61847294317728     
   16.8992271416994        6.97068945515340     
   17.0243878991727        9.68067604145499     
   16.2423724201641        6.93224365504339     
   16.4071734056745        9.74080166083653     
   15.5876124190963        6.88177116232641     
   15.8002931851895        9.79429553639406     
   14.9398109038860        6.82972200646769     
   15.1965267961616        9.83799506874164     
   14.2934376269326        6.78350661030274     
   14.5902987545353        9.87563727964232     
   13.9815654210430        9.91395300915763     
   13.6433154463813        6.74066261932937     
   13.3750916853179        9.95825845922004     
   12.9875023860759        6.69992202482337     
   12.7766787860864        10.0090320101087     
   12.3215560036435        6.65898832730918     
   12.1865064780255        10.0609563804987     
   11.6150542539765        6.62229526628984     
   11.5991818136873        10.1107362024299     
   10.9868029670920        6.48009926250533     
   11.0122399571336        10.1622335144171     
   10.4856011368717        6.32845477590665     
   10.4282255331017        10.2188870371191     
   9.92932007186513        6.30539541731302     
   9.84709127147301        10.2780357623535     
   9.29330608511780        6.26666039627556     
   9.26406401684996        10.3377125061420     
  0.650722221443212        5.27295544588203     
  0.895948933426995        5.51319962871925     
   2.03443651522396        4.08772305000161     
  0.548469886566189        4.90231058033629     
   1.60363764607883        3.93619607562757     
  0.297026237725834        4.02631611339042     
  0.881050937022618        3.76980849485968     
  0.637711154664759        4.60524635953745     
   1.29910748907816        3.80570323260904     
  0.431181287265240        3.60275758141600     
   1.78852530712836        12.5995096619740     
   1.81709248004573        12.8995308780001     
   1.71003494498097        12.2623947078480     
   1.62285883946166        11.9338955693087     
   1.53546203482493        11.6146320640672     
   1.45140618226178        11.3036358584395     
   1.30374254274963        10.7011880600228     
   3.50075300249577        11.8783296665101     
   3.05746501890898        11.9982825104270     
   1.24035935066838        10.4083432563917     
   1.37369381818923        10.9996605674225     
   2.50002038100015        12.3880130789946     
   3.97801978376403        11.7547003598266     
   1.18221475091357        10.1232238245684     
   1.13004621342409        9.84822520515387     
   1.05535444761381        9.32855872713326     
   4.48052681194347        11.6293195321465     
   1.08670861817649        9.58409152097658     
   1.03611176534533        9.07733181777557     
   1.02556975149389        8.82665468941660     
   1.01931041303107        8.57452492301925     
   5.00520165857292        11.5048117573506     
   5.29414751293052        5.15174542407273     
   5.54949674114709        11.3841715407021     