 TITLE = "Edge Error"
 VARIABLES = "X", "Y","Estimate1" 
 ZONE T = "Domain", I=       23769  DATAPACKING=POINT, ZONETYPE=ORDERED
  -2.07114999000000        3.06431703000000       5.433412326871076E-003
  -2.05755277000000        3.06191062500000       3.901399823092924E-003
  -2.06359722000000        3.05275152500000       7.448198161009500E-003
  -2.08524608500000        3.04230362000000       3.819936501117586E-003
  -2.08859722000000        3.04993499500000       8.240475089027371E-003
  -2.07384330500000        3.04752655500000       8.938046360204769E-004
  -2.06024608500000        3.04512015000000       4.622443460816672E-003
  -2.10000000000000        3.08387917500000       5.817862177220997E-004
  -2.08255277000000        3.08708319000000       4.455258415511879E-003
  -2.08255277000000        3.07027211500000       6.196104012006739E-003
  -2.10000000000000        3.05589008000000       5.860926474054337E-004
  -2.08859722000000        3.06111301500000       6.377171051599571E-003
  -2.10000000000000        3.03353404500000       2.563992615931790E-003
  -2.08750000000000        3.03423818000000       1.530645765915816E-003
  -2.09375000000000        3.01973756000000       2.334205644797401E-003
  -2.08125000000000        3.02044169500000       3.019930688307175E-003
  -2.10000000000000        3.01117801500000       2.581798843659697E-003
  -2.09375000000000        3.00000000000000       7.775964281475044E-003
  -2.08750000000000        3.00855954500000       2.554563505780948E-003
  -2.08125000000000        3.00000000000000       5.885683838016543E-003
  -2.07500000000000        3.01188215000000       3.131744447638978E-003
  -2.06250000000000        3.00000000000000       8.742891874902549E-004
  -2.05000000000000        3.01258628000000       8.603436358676032E-003
  -2.06250000000000        3.02446843000000       4.636676325784969E-003
  -2.05000000000000        3.03775884000000       8.603436358675881E-003
  -2.06024608500000        3.03253387000000       1.625776335218205E-003
  -2.07274608500000        3.03182974000000       1.687215599807984E-003
  -2.01875000000000        3.03146570000000       5.117670541135365E-003
  -2.03750000000000        3.02517256000000       4.155363527782969E-003
  -2.02187500000000        3.03775884000000       9.313534957455767E-004
  -2.04062500000000        3.03146570000000       7.418240825175148E-003
  -2.00625000000000        3.04405198000000       4.430606158043375E-003
  -2.01250000000000        3.05034512000000       3.388543335500088E-004
  -2.02812500000000        3.04405198000000       5.846870939021964E-003
  -2.03750000000000        3.05034512000000       2.089852897723802E-003
  -2.03750000000000        3.00000000000000       2.328280895914554E-003
  -2.02500000000000        3.01258628000000       8.474731467627441E-003
  -2.00000000000000        3.01258628000000       1.181103128562311E-002
  -2.01250000000000        3.00000000000000       2.328280895914554E-003
  -2.00625000000000        3.02202599000000       3.748310132610688E-003
  -2.01875000000000        3.00943971000000       6.403693721411132E-003
  -2.00000000000000        3.03775884000000       1.181103128562291E-002
  -2.01250000000000        3.02831913000000       5.714555741319465E-003
  -2.01515405000000        3.06327670000000       4.048511814505816E-003
  -2.01314716500000        3.05812956000000       9.385536970519770E-003
  -2.02700688500000        3.05549226000000       4.469283428084295E-003
  -2.03950688500000        3.05549226000000       4.793025475967962E-003
  -2.00064716500000        3.05812956000000       8.282369002950644E-003
  -2.00105395000000        3.07414144000000       8.835284537970977E-003
  -2.01057023000000        3.07398713500000       7.320078103284564E-003
  -2.01032985000000        3.08221457500000       1.398075515962702E-003
  -2.00238445500000        3.09074267500000       1.626665686100393E-003
  -2.01190073500000        3.09058837000000       2.625578233117605E-003
  -2.03329503000000        3.07413417000000       2.095371588962525E-004
  -2.02994703500000        3.07992620500000       1.603955814406379E-003
  -2.02319412500000        3.07626823500000       1.200237405485631E-003
  -2.01391822500000        3.06819510000000       1.201198868513658E-003
  -2.02777794500000        3.06555780000000       3.025299690483304E-003
  -2.03437695000000        3.06846486500000       1.637681820652561E-003
  -2.04112986000000        3.07212283500000       7.162284082641564E-004
  -2.04610589000000        3.05839932500000       5.174405464623588E-003
  -2.03561277500000        3.06354646500000       5.476560332795272E-004
  -2.05365866000000        3.06996483000000       3.483887804351141E-003
  -2.05257674000000        3.07563413500000       4.434616264542002E-003
  -2.04296760000000        3.08736749500000       1.716257120126742E-005
  -2.03286669500000        3.08950156000000       1.317290514825054E-003
  -2.02492130000000        3.09802966000000       3.769923847081949E-003
  -2.07294363000000        3.09881655000000       2.765769708169555E-003
  -2.05549640000000        3.08520949000000       4.444829315634511E-003
  -2.03852769000000        3.13809461500000       4.544618632249943E-004
  -2.02500000000000        3.15237387000000       4.136224697567093E-003
  -2.01352769000000        3.13809461500000       3.071495991831862E-003
  -2.01550536000000        3.11146591500000       1.673588544920386E-004
  -2.01225388500000        3.12206657500000       1.407949246645615E-003
  -2.00070386500000        3.10971713000000       2.123079977447609E-003
  -1.99872619500000        3.13634583000000       7.246646829905460E-004
  -2.00000000000000        3.17821568500000       1.648893162141301E-003
  -2.02500000000000        3.20405750000000       9.306447584243932E-004
  -2.05000000000000        3.17821568500000       2.737067949060846E-004
  -2.07500000000000        3.14384938500000       8.327181670197176E-004
  -2.07500000000000        3.20405750000000       3.714190747935500E-004
  -2.10000000000000        3.16969120000000       3.989110258917448E-004
  -2.08232740000000        3.11125253500000       9.827344224545731E-004
  -2.10000000000000        3.11800757500000       5.836055637187104E-004
  -2.08232740000000        3.12856986000000       4.429172027897789E-004
  -2.05732740000000        3.13709434500000       6.757578580447014E-004
  -2.04585509000000        3.12281509000000       1.328964673092241E-003
  -2.05527103000000        3.10937883500000       5.623748632542483E-004
  -2.03647132000000        3.11037910500000       1.436935911332688E-003
  -2.10000000000000        3.25718071500000       6.599980926576312E-004
  -2.05000000000000        3.23061911000000       2.825385900863641E-004
  -2.07500000000000        3.28374232500000       1.114374049193308E-004
  -2.00000000000000        3.23061910500000       1.694820927245187E-003
  -2.02500000000000        3.25718071500000       3.649928479791450E-004
  -2.00000000000000        3.28374232000000       1.219115635821591E-003
  -2.05000000000000        3.31030393000000       3.161530497318909E-004
  -2.10000000000000        3.36496039500000       9.904173326782258E-004
  -2.00000000000000        3.36496039000000       2.508603393569056E-003
  -2.05000000000000        3.41961685500000       2.049372831249943E-004
  -2.10000000000000        3.47594803000000       1.020764279908032E-003
  -2.00000000000000        3.47594802500000       1.591107046956305E-003
  -2.05000000000000        3.53227920000000       2.842403791372347E-004
  -2.10000000000000        3.59055117500000       7.700612655950069E-004
  -2.00000000000000        3.59055117500000       1.062877306045102E-003
  -2.05000000000000        3.64882315000000       2.218387529863908E-004
  -2.10000000000000        3.70879640000000       5.440579932929493E-004
  -2.00000000000000        3.70879639500000       8.215644684716166E-004
  -2.05000000000000        3.76876964500000       6.962562993520114E-005
  -2.10000000000000        3.83051986500000       3.141072361549635E-004
  -2.00000000000000        3.83051986000000       5.606021594463338E-004
  -2.05000000000000        3.89227008000000       5.959338262429884E-005
  -2.10000000000000        3.95586809500000       1.568474910654400E-004
  -2.00000000000000        3.95586809500000       3.025206777920055E-004
  -2.05000000000000        4.01946611000000       6.966916129454684E-005
  -2.10000000000000        4.08497837000000       7.054507444762291E-005
  -2.00000000000000        4.08497836500000       1.249352337833490E-004
  -2.05000000000000        4.15049062500000       7.098628567796283E-005
  -2.10000000000000        4.21797956500000       2.744439336272303E-005
  -2.00000000000000        4.21797956000000       3.971407695395464E-005
  -2.05000000000000        4.28546850000000       5.577050798405428E-005
  -2.10000000000000        4.35499290500000       7.408070214055705E-006
  -2.00000000000000        4.35499290500000       9.461110330890052E-006
  -2.05000000000000        4.42451731000000       4.266496409768908E-005
  -2.10000000000000        4.49613263000000       5.545494329641598E-006
  -2.00000000000000        4.49613263000000       4.462701273242862E-006
  -2.05000000000000        4.56774795000000       3.213998793449833E-005
  -2.10000000000000        4.64150657500000       6.574281804916278E-006
  -2.00000000000000        4.64150657000000       6.492877635596468E-006
  -2.05000000000000        4.71526519500000       2.358665862964447E-005
  -2.10000000000000        4.79121669500000       6.769737527437500E-006
  -2.00000000000000        4.79121669000000       6.685914076754756E-006
  -2.05000000000000        4.86716819000000       1.701400271750742E-005
  -2.10000000000000        4.94556311500000       6.314565750456517E-006
  -2.00000000000000        4.94556311000000       6.886924761392712E-006
  -2.05000000000000        5.02395803500000       1.244355230572318E-005
  -2.10000000000000        5.10476567500000       5.290896777855195E-006
  -2.00000000000000        5.10476567000000       6.105176727102317E-006
  -2.05000000000000        5.18557331000000       9.474340474165994E-006
  -2.10000000000000        5.26874807500000       4.240262075504860E-006
  -2.00000000000000        5.26874807000000       5.066359671863713E-006
  -2.05000000000000        5.35192283500000       7.451945746919305E-006
  -2.10000000000000        5.43750312500000       3.380612487186125E-006
  -2.00000000000000        5.43750312000000       4.133393518124888E-006
  -2.05000000000000        5.52308341000000       5.830975861825101E-006
  -2.10000000000000        5.61135857500000       2.756225280123902E-006
  -2.00000000000000        5.61135857500000       3.424316315360825E-006
  -2.05000000000000        5.69963374000000       4.390477044849013E-006
  -2.10000000000000        5.79064894500000       2.290929608592487E-006
  -2.00000000000000        5.79064894500000       2.877583232174788E-006
  -2.05000000000000        5.88166415000000       3.217804697280538E-006
  -2.10000000000000        5.97522188000000       1.879812312576974E-006
  -2.00000000000000        5.97522187500000       2.370160912407905E-006
  -2.05000000000000        6.06877960500000       2.380459608474075E-006
  -2.10000000000000        6.16541753500000       1.483073569817805E-006
  -2.00000000000000        6.16541752500000       1.850324266153628E-006
  -2.05000000000000        6.26205545500000       1.774017918420919E-006
  -2.10000000000000        6.36142463500000       1.059335584347735E-006
  -2.00000000000000        6.36142462500000       1.293038078402873E-006
  -2.05000000000000        6.46079380500000       1.368223491447953E-006
  -2.10000000000000        6.56332040000000       6.248506607364554E-007
  -2.00000000000000        6.56332039000000       7.160281024750880E-007
  -2.05000000000000        6.66584698500000       1.103082153586734E-006
  -2.10000000000000        6.77127139000000       2.429497588840293E-007
  -2.00000000000000        6.77127138500000       3.997279481696945E-007
  -2.05000000000000        6.87669579000000       9.383903736489006E-007
  -2.10000000000000        6.98557063500000       6.413237506612887E-007
  -2.00000000000000        6.98557063000000       8.983162643611258E-007
  -2.05000000000000        7.09444547500000       7.987256183900005E-007
  -2.10000000000000        7.20645315000000       1.005560965568586E-006
  -2.00000000000000        7.20645314000000       1.352103496389127E-006
  -2.05000000000000        7.31846081500000       6.699504298125620E-007
  -2.10000000000000        7.43378271500000       1.341959569617251E-006
  -2.00000000000000        7.43378271000000       1.775175036657335E-006
  -2.05000000000000        7.54910461000000       5.580153041334588E-007
  -2.10000000000000        7.66812026500000       1.636200443357641E-006
  -2.00000000000000        7.66812026500000       2.151528074714041E-006
  -2.05000000000000        7.78713592000000       4.720155483853764E-007
  -2.10000000000000        7.90968672500000       1.875710258827968E-006
  -2.00000000000000        7.90968672500000       2.464414695214691E-006
  -2.05000000000000        8.03223753000000       4.281766372189184E-007
  -2.10000000000000        8.15846631000000       2.090304723571687E-006
  -2.00000000000000        8.15846630500000       2.745527997906621E-006
  -2.05000000000000        8.28469508500000       4.062622351081512E-007
  -2.10000000000000        8.41473575500000       2.304980268788041E-006
  -2.00000000000000        8.41473575000000       3.022833822981270E-006
  -2.05000000000000        8.54477642000000       3.980063558480295E-007
  -2.10000000000000        8.67875481500000       2.553584529305054E-006
  -2.00000000000000        8.67875481000000       3.333937704081329E-006
  -2.05000000000000        8.81273320500000       4.054801341599676E-007
  -2.10000000000000        8.95076777500000       2.864557369695416E-006
  -2.00000000000000        8.95076777000000       3.711973047875206E-006
  -2.05000000000000        9.08880234000000       4.071588873947492E-007
  -2.10000000000000        9.23100479000000       3.252280413749633E-006
  -2.00000000000000        9.23100479000000       4.182086219316293E-006
  -2.05000000000000        9.37320724000000       3.859389738528969E-007
  -2.10000000000000        9.51968309000000       3.714999607994968E-006
  -2.00000000000000        9.51968308500000       4.751967557005872E-006
  -2.05000000000000        9.66615893500000       3.609250759084090E-007
  -2.10000000000000        9.81706219000000       4.239646897101750E-006
  -2.00000000000000        9.81706218000000       5.410004596947900E-006
  -2.05000000000000        9.96796543500000       3.445335903480590E-007
  -2.10000000000000        10.1235554200000       4.724452621553767E-006
  -2.00000000000000        10.1235554150000       6.011731338411410E-006
  -2.05000000000000        10.2791454000000       3.291051075037596E-007
  -2.10000000000000        10.4393362000000       4.864155423175658E-006
  -2.00000000000000        10.4393362000000       6.189498973762278E-006
  -2.05000000000000        10.5995270000000       1.648797395103433E-007
  -2.10000000000000        10.7645987500000       4.926360656623302E-006
  -2.00000000000000        10.7645987000000       6.364443672383030E-006
  -2.05000000000000        10.9296704500000       5.547117179712545E-008
  -2.10000000000000        11.0997236000000       4.398998596910858E-006
  -2.00000000000000        11.0997235500000       5.848849333825809E-006
  -2.05000000000000        11.2697767000000       5.636827146901919E-008
  -2.10000000000000        11.4450105500000       3.587156075621039E-006
  -2.00000000000000        11.4450105500000       4.875740704318877E-006
  -2.05000000000000        11.6202444000000       5.464116259689921E-008
  -2.10000000000000        11.8006968500000       2.560725066893193E-006
  -2.00000000000000        11.8006968500000       3.655381283890610E-006
  -2.05000000000000        11.9811493000000       6.711179708237707E-008
  -2.10000000000000        12.1671226000000       1.415339734251285E-006
  -2.00000000000000        12.1671226000000       2.335160037447746E-006
  -2.05000000000000        12.3530959000000       6.465338877100381E-008
  -2.10000000000000        12.5447216500000       1.269243917826392E-006
  -2.00000000000000        12.5447216500000       9.528281229394660E-007
  -2.05000000000000        12.7363474000000       5.552624756511894E-008
  -2.10000000000000        12.9337472000000       3.196017428995054E-006
  -2.00000000000000        12.9337472000000       2.777924584464096E-006
  -2.05000000000000        13.1311470000000       2.612877016629072E-008
  -2.10000000000000        13.3345061500000       5.768840721348738E-006
  -2.00000000000000        13.3345061500000       5.514906091712455E-006
  -2.05000000000000        13.5378653000000       5.357622402440122E-008
  -2.10000000000000        13.7473584500000       9.176351080352673E-006
  -2.00000000000000        13.7473584500000       8.935042979039083E-006
  -2.05000000000000        13.9568516000000       2.255678285977779E-007
  -2.10000000000000        14.1726992500000       1.293357714671277E-005
  -2.00000000000000        14.1726992500000       1.216615229692740E-005
  -2.05000000000000        14.3885469000000       1.119296041219131E-007
  -2.10000000000000        14.6109833000000       1.765414143676791E-005
  -2.00000000000000        14.6109833000000       1.375820597143881E-005
  -2.05000000000000        14.8334197000000       5.841262293821507E-007
  -2.10000000000000        15.0625054000000       1.818187737681859E-005
  -2.00000000000000        15.0625054000000       4.212875606755578E-005
  -2.05000000000000        15.2915911000000       7.039405534923790E-007
  -2.10000000000000        15.5276675500000       1.749861794025206E-005
  -2.00000000000000        15.5276675500000       4.341435181394807E-005
  -2.05000000000000        15.7637440000000       9.978383897205124E-006
  -1.05000000000000        16.0068720000000       7.176656990341979E-004
  -2.00000000000000        16.0068720000000       1.114040101102342E-005
  -1.00000000000000        16.2500000000000       6.586114183979209E-004
  -7.98973233000000       0.107690314500000       3.529246173238892E-004
  -8.10000000000000       0.250000000000000       6.748854813689894E-004
  -7.98973233000000       0.357690314500000       9.724729280427547E-005
  -7.88303270000000       0.605187561500000       3.980273060041380E-003
  -8.10000000000000       0.750000000000000       1.376754029456137E-003
  -7.88303270000000       0.855187561500000       2.515446119672104E-003
  -7.86770264000000        1.09398183000000       5.128628513960467E-003
  -8.10000000000000        1.25000000000000       1.376754029456137E-003
  -7.86770264000000        1.34398183000000       2.532298609502412E-003
  -7.86974772500000        1.59716293500000       4.599226039363646E-003
  -8.10000000000000        1.75000000000000       9.992732766721424E-004
  -7.86974772500000        1.84716293500000       2.598193833007283E-003
  -7.87380659500000        2.35508230500000       2.651650328990717E-003
  -7.87380659500000        2.10508230500000       3.985360427185520E-003
  -8.10000000000000        2.25000000000000       8.249982569901684E-004
  -8.10000000000000        2.75000000000000       3.110993049442008E-004
  -7.88252074000000        2.86516612000000       2.371483956554970E-003
  -7.88252074000000        2.61516612000000       2.757530146708965E-003
  -7.88353187000000        3.37109646000000       2.108531307638204E-003
  -7.88353187000000        3.12109646000000       2.504745157312238E-003
  -8.10000000000000        3.25000000000000       3.916160502997541E-004
  -7.88278159500000        3.87996468500000       1.478554926713551E-003
  -7.88278159500000        3.62996468500000       2.411029851879245E-003
  -8.10000000000000        3.75000000000000       6.823592777519376E-004
  -7.89009324000000        4.39152118000000       4.294987251750411E-004
  -7.89009324000000        4.14152118000000       1.959079178290049E-003
  -8.10000000000000        4.25000000000000       8.265858084845948E-004
  -8.10000000000000        4.75000000000000       8.527358081633629E-004
  -7.90621666000000        4.89651798000000       2.682101022512151E-004
  -7.90621666000000        4.64651798000000       1.300576170507555E-003
  -8.10000000000000        5.25000000000000       1.281540627495954E-003
  -7.92681427500000        5.38512294000000       6.287601965158564E-004
  -7.92681427500000        5.13512294000000       1.472818652250845E-003
  -7.95145026000000        5.83090219000000       8.686127636674363E-004
  -7.95145026000000        5.58090219000000       1.043256829516085E-003
  -8.10000000000000        5.75000000000000       1.281540627495954E-003
  -7.85684305500000        5.98812991000000       3.437120908928360E-004
  -7.70829331500000        5.81903210000000       1.472785479439240E-003
  -7.53045372000000        5.76876416000000       1.561888128055433E-003
  -7.37208296500000        5.94659807500000       2.775358841931082E-004
  -7.28885057500000        5.73910241500000       1.677896232716875E-003
  -6.84053925000000        5.61900659500000       1.697941744984975E-003
  -7.07693001000000        5.67695016000000       1.543268857235937E-003
  -6.89408906000000        5.85899276500000       3.791070304256420E-004
  -6.40852127000000        5.44870883000000       2.540075713261407E-003
  -6.63260599500000        5.54354969500000       1.268362465343530E-003
  -6.43361357500000        5.70620833500000       1.053517599012936E-003
  -6.00836484500000        5.47453871000000       2.747186270568002E-003
  -6.02280408500000        5.19750258000000       3.926739159867619E-003
  -6.22396809000000        5.33433134000000       1.200079399891976E-003
  -5.85410678500000        5.01432354000000       3.809380626096987E-003
  -5.63625017000000        5.16454050000000       4.174717120631410E-003
  -5.68315611500000        4.84115409000000       1.079231415688225E-002
  -5.47641380000000        4.44241917500000       6.228437031544854E-003
  -5.52890956000000        4.68986522000000       6.936118607599925E-003
  -5.41280374000000        4.74392500500000       1.684294480670856E-003
  -5.26612959500000        4.54963899500000       4.016410613273709E-003
  -5.31862535500000        4.79708504000000       3.087596481595615E-003
  -5.18156360000000        4.43176036000000       6.657172663270156E-004
  -5.03602223500000        4.41107746000000       1.487171879683344E-003
  -5.04563462500000        4.24003879000000       7.730774965295789E-003
  -5.22011601500000        4.11807203500000       2.908088869583665E-003
  -5.13683796000000        4.14623335000000       2.253165652672144E-003
  -5.16577798500000        4.00358369500000       3.703221923072093E-003
  -4.99129659500000        4.12555045000000       1.023675551415803E-002
  -4.86992521500000        3.83284244500000       6.437563297075995E-003
  -4.92518279000000        4.01346145500000       1.204585792446461E-002
  -4.84483568500000        4.03873688000000       5.790490585489199E-003
  -4.71011266500000        3.87419927000000       4.758670931975904E-003
  -4.76537024000000        4.05481828000000       2.877184780988648E-003
  -4.56767696000000        3.63930921500000       2.693570348892695E-003
  -4.64202671500000        3.77139003500000       8.421781237395639E-003
  -4.55629746500000        3.75819985000000       6.309158446359863E-003
  -4.41817082500000        3.62835742000000       1.709109604756834E-003
  -4.49252058000000        3.76043824000000       3.996843814999607E-003
  -4.32850079000000        3.55752947000000       3.827651216893778E-003
  -4.21584470500000        3.53421816500000       2.479800977789391E-003
  -4.18995155500000        3.46115182500000       7.689717187093897E-004
  -4.27830459000000        3.41305927500000       5.998975096158928E-003
  -4.24093230000000        3.44135141000000       2.088798196599513E-003
  -4.21662925000000        3.36994755500000       2.746190869402671E-003
  -4.12827621500000        3.41804010500000       6.078389099133942E-004
  -4.07476932000000        3.38534710500000       2.280108108982461E-003
  -3.94314846500000        3.36895770500000       4.059220410137690E-004
  -3.94062231500000        3.31646429000000       7.965286461197928E-004
  -4.05213318500000        3.26118958000000       5.501038355952042E-003
  -3.92051233000000        3.24480018000000       5.634047881664611E-003
  -3.80633909000000        3.24318480000000       9.084785052072169E-004
  -3.68136953500000        3.25137458500000       2.044068368220690E-003
  -3.67870716500000        3.19448449500000       2.918926798288579E-003
  -3.80851599000000        3.12036999000000       3.667356497576379E-003
  -3.68354643500000        3.12855977500000       6.935084151560494E-003
  -3.54938556500000        3.07456859000000       6.383842385626444E-003
  -3.43477860000000        3.16875277500000       2.188940833359319E-003
  -3.43042655500000        3.04064708500000       8.563468312652974E-003
  -3.29833783000000        3.03596494000000       2.932463813281245E-003
  -3.21243075500000        3.11254298500000       2.080917032233258E-003
  -3.19494899500000        3.01367665500000       5.633098587121908E-003
  -3.08637566000000        2.99424078000000       3.527302286437692E-003
  -3.00852282000000        3.07396744500000       2.059296497929009E-003
  -2.98585656000000        2.97795352500000       6.624851311973308E-003
  -2.88181868000000        2.96812256500000       1.862858409485082E-003
  -2.82633137000000        3.04782221500000       1.705033040230401E-003
  -2.80014633000000        2.95826459000000       4.650614972770081E-003
  -2.70979289500000        2.95559569500000       4.094094784922843E-004
  -2.66515344500000        3.03082679000000       1.708987045557950E-003
  -2.63028732000000        2.94845824500000       3.126000780262614E-003
  -2.55369529000000        2.95032870000000       1.126508707033874E-004
  -2.51538427000000        3.01906856000000       1.157537428815174E-003
  -2.48343169000000        2.94570792000000       1.435957855139997E-003
  -2.35889064000000        3.01007348500000       9.512815980771932E-005
  -2.34545285000000        2.95526637000000       3.861479053076512E-004
  -2.37421950000000        2.95661231500000       4.100626017232957E-006
  -2.41638898000000        3.01293360500000       2.761399254618873E-004
  -2.40295119000000        2.95812649000000       2.592370332369112E-004
  -2.24946776500000        2.93752618500000       3.648419062189490E-004
  -2.29050160500000        2.95737829000000       1.447161087814083E-003
  -2.28909015000000        2.98887543500000       7.337111251763647E-004
  -2.23156568500000        2.98655790500000       1.021670791629364E-003
  -2.26034010500000        2.98766619000000       1.317071439779690E-004
  -2.24384948000000        3.00520076500000       1.568036620182991E-003
  -2.30137394500000        3.00751829500000       1.235620651765734E-004
  -2.15282227500000        2.92144573000000       1.615384392087957E-003
  -2.17060855500000        2.93110362000000       2.116956263768254E-003
  -2.16485623000000        2.94546668000000       2.922212871128290E-003
  -2.13779021000000        2.94410219000000       6.676876150493991E-003
  -2.15301197000000        2.95070277500000       3.959438376621706E-004
  -2.14373223000000        2.95899617500000       5.895220010884612E-003
  -2.17079825000000        2.96036066500000       2.663883439987158E-003
  -2.12772783500000        2.96218633500000       2.838592536069140E-003
  -2.14302859000000        2.97720409000000       1.598287383077398E-003
  -2.14224595500000        2.98699483500000       4.969556787066176E-003
  -2.12120919000000        2.97596488000000       7.615577723168441E-003
  -2.13650994500000        2.99098263500000       1.025026772924935E-002
  -2.11292074000000        2.98609006500000       6.395413887818080E-003
  -2.12212337000000        2.99047737000000       1.609685241175853E-003
  -2.11957093000000        2.99661475500000       4.502618780231950E-003
  -2.10518415000000        2.99611372500000       7.347499795588770E-003
  -2.11237755500000        2.99636397500000       2.020316833905578E-004
  -2.10719340500000        3.00025025000000       8.891905127497757E-003
  -2.12158018500000        3.00075128000000       4.089815687440623E-003
  -2.14316013500000        3.00150732500000       8.160368559244888E-003
  -2.18133700500000        2.97040935000000       5.797854056945979E-004
  -2.19885878500000        2.97960852500000       2.086336952984036E-003
  -2.19755328000000        2.99489330500000       2.152205270899905E-003
  -2.16878910500000        2.99385336000000       6.956124250686715E-003
  -2.18317527500000        2.99436711000000       2.031074652007047E-004
  -2.17193288000000        3.00252634000000       7.679387929689158E-003
  -2.20069705500000        3.00356628500000       7.821982979126270E-004
  -2.15825035000000        2.98380467500000       2.409388691557987E-003
  -2.16949274500000        2.97564544500000       1.580796081539599E-003
  -2.07977449000000        2.96482837000000       9.743380143904034E-003
  -2.08885198000000        2.96876758500000       1.004156732481607E-002
  -2.08515459000000        2.97723839500000       1.899437668737521E-003
  -2.07031893000000        2.97753979000000       4.802971811994445E-003
  -2.07908151000000        2.98066249500000       5.973333309828143E-004
  -2.07332334000000        2.98490310500000       8.786838591219103E-003
  -2.09104296000000        2.99401290500000       9.761093552562831E-003
  -2.08815900000000        2.98460171000000       8.452018687589711E-003
  -2.09711604000000        2.99058880500000       2.653495650852725E-003