 TITLE = "Adapted Mesh"
 VARIABLES = "X", "Y"
 ZONE T = "Domain", N=        5411 E=       10427 
 DATAPACKING=POINT, ZONETYPE=FEQUADRILATERAL
  0.000000000000000E+000   3.25000000000000     
  0.000000000000000E+000   3.35065440820481     
  0.000000000000000E+000   3.45408305581161     
  0.000000000000000E+000   3.56048430903498     
  0.000000000000000E+000   3.67004194402138     
  0.000000000000000E+000   3.78292670606310     
  0.000000000000000E+000   3.89953802048711     
  0.000000000000000E+000   4.01989794031216     
  0.000000000000000E+000   4.14389246311028     
  0.000000000000000E+000   4.27166058920092     
  0.000000000000000E+000   4.40333268811658     
  0.000000000000000E+000   4.53903127661026     
  0.000000000000000E+000   4.67887170985512     
  0.000000000000000E+000   4.82296279176263     
  0.000000000000000E+000   4.97179232971223     
  0.000000000000000E+000   5.12524192692752     
  0.000000000000000E+000   5.28332193539893     
  0.000000000000000E+000   5.44611548428505     
  0.000000000000000E+000   5.61370321624037     
  0.000000000000000E+000   5.78710884280579     
  0.000000000000000E+000   5.96552295867081     
  0.000000000000000E+000   6.14923005357088     
  0.000000000000000E+000   6.33906363309202     
  0.000000000000000E+000   6.53417860009203     
  0.000000000000000E+000   6.73595100892125     
  0.000000000000000E+000   6.94345058505793     
  0.000000000000000E+000   7.15762147597203     
  0.000000000000000E+000   7.37837320587652     
  0.000000000000000E+000   7.60573693024928     
  0.000000000000000E+000   7.84013184831114     
  0.000000000000000E+000   8.08199652084417     
  0.000000000000000E+000   8.33123592048883     
  0.000000000000000E+000   8.58812135731189     
  0.000000000000000E+000   8.85290749800328     
  0.000000000000000E+000   9.12583385215647     
  0.000000000000000E+000   9.40712608682799     
  0.000000000000000E+000   9.69716995674931     
  0.000000000000000E+000   9.99629546742320     
  0.000000000000000E+000   10.3044834647838     
  0.000000000000000E+000   10.6221390235924     
  0.000000000000000E+000   10.9497464896789     
  0.000000000000000E+000   11.2873114095262     
  0.000000000000000E+000   11.6353110119263     
  0.000000000000000E+000   11.9941592780014     
  0.000000000000000E+000   12.3639812472497     
  0.000000000000000E+000   12.7451893719921     
  0.000000000000000E+000   13.1381705762379     
  0.000000000000000E+000   13.5432888877409     
  0.000000000000000E+000   13.9608868377879     
  0.000000000000000E+000   14.3912877775972     
  0.000000000000000E+000   14.8350577742103     
  0.000000000000000E+000   15.2925046077387     
  0.000000000000000E+000   15.7640383416259     
  0.000000000000000E+000   16.2500000000000     
  0.100000000000000        3.24999999535898     
  0.100000000000000        3.35065440356379     
  0.100000000000000        3.45408305117059     
  0.100000000000000        3.56048430439396     
  0.100000000000000        3.67004193938036     
  0.100000000000000        3.78292670142208     
  0.100000000000000        3.89953801584609     
  0.100000000000000        4.01989793567114     
  0.100000000000000        4.14389245846926     
  0.100000000000000        4.27166058455990     
  0.100000000000000        4.40333268347556     
  0.100000000000000        4.53903127196924     
  0.100000000000000        4.67887170521410     
  0.100000000000000        4.82296278712161     
  0.100000000000000        4.97179232507121     
  0.100000000000000        5.12524192228650     
  0.100000000000000        5.28332193075791     
  0.100000000000000        5.44611547964403     
  0.100000000000000        5.61370321159935     
  0.100000000000000        5.78710883816477     
  0.100000000000000        5.96552295402979     
  0.100000000000000        6.14923004892986     
  0.100000000000000        6.33906362845100     
  0.100000000000000        6.53417859545101     
  0.100000000000000        6.73595100428023     
  0.100000000000000        6.94345058041691     
  0.100000000000000        7.15762147133101     
  0.100000000000000        7.37837320123550     
  0.100000000000000        7.60573692560826     
  0.100000000000000        7.84013184367012     
  0.100000000000000        8.08199651620315     
  0.100000000000000        8.33123591584781     
  0.100000000000000        8.58812135267087     
  0.100000000000000        8.85290749336226     
  0.100000000000000        9.12583384751545     
  0.100000000000000        9.40712608218697     
  0.100000000000000        9.69716995210829     
  0.100000000000000        9.99629546278218     
  0.100000000000000        10.3044834601428     
  0.100000000000000        10.6221390189514     
  0.100000000000000        10.9497464850378     
  0.100000000000000        11.2873114048852     
  0.100000000000000        11.6353110072853     
  0.100000000000000        11.9941592733604     
  0.100000000000000        12.3639812426086     
  0.100000000000000        12.7451893673511     
  0.100000000000000        13.1381705715969     
  0.100000000000000        13.5432888830999     
  0.100000000000000        13.9608868331469     
  0.100000000000000        14.3912877729562     
  0.100000000000000        14.8350577695693     
  0.100000000000000        15.2925046030977     
  0.100000000000000        15.7640383369848     
  0.100000000000000        16.2499999860769     
   64.3600222706514       0.626078326545448     
  -7.88026458148417       0.218090868734878     
  -7.79906574601863        5.66174058315117     
   6.23088961228558        7.95666373691011     
   5.86770339128569        8.27725038985103     
   5.85761511832819        7.68648843216526     
   5.79056167819417        7.98079514604013     
   5.85220488675858        8.66824573776757     
   5.45859709423703        8.78223847090040     
   6.32898626912779        8.43739199532398     
   5.48822534568860        8.47600284681590     
   6.88034208965601        8.11274033867218     
   6.21898717512354        7.57411343398291     
   5.48504017247243        8.15169038548590     
   5.47119821769299        7.49951928677231     
   5.47945923072783        7.83848872512926     
   5.36213341599603        7.10504413647273     
   5.26410171584983        9.92935234889931     
   5.15045015761356        9.69072040087504     
   5.67079341164150        9.11853831493968     
   5.14604619009966        9.00112109481336     
   5.18598507070526        9.37890283816919     
   6.27269114160520        8.92583261667374     
   5.11267090181612        8.65427186970305     
   6.83955636368405        8.69326877617422     
   6.63770471675211        7.63745398483888     
   5.92142680008515        7.27689145969056     
   5.12877301713329        8.01426270097248     
   5.12694259018755        8.32831686805141     
   5.32572065683174        6.71132737229971     
   4.99109948801465        6.89169281681583     
   5.11390153554673        7.70268468779954     
   4.96172360751002        7.14812212253385     
   5.06333427185087        7.39240947863578     
   7.52144095753462        7.94803570863178     
   7.43983601199325        8.46298998047993     
   4.95918530730302        6.58677987810482     
   8.08222807492441        8.21216637179371     
   4.90784351183394        6.31656137403614     
   9.08831657186082        8.57205042843052     
   4.90285226160615        9.91380644731050     
   5.58940722855905        9.65453815055305     
   4.79874828330790        9.58664283739083     
   6.17076443114120        9.42720647832964     
   4.68403742021393        8.84961240914381     
   4.74592708047856        9.23096777198603     
   6.74941513566454        9.21972203671234     
   6.41119176939182        7.32360786406051     
   4.75084145699651        8.49429530466686     
   4.77231623959003        8.18348037200090     
   5.77397961325739        6.82108720260006     
   4.74550093456402        7.58962987520342     
   4.76983542825564        7.88352950559362     
   7.12816940658014        7.66611304349824     
   7.33690602359759        9.01250687833075     
   4.64839623400722        6.76077202554342     
   5.24243087148106        6.37654305331435     
   4.66858401059097        7.04177775833159     
   4.70137597718790        7.31088916006725     
   7.94425453075205        8.81347008061368     
   7.91542377963027        7.80684656290849     
   4.62315710596542        6.17056416954097     
   4.62164492350514        6.47077000656131     
   8.55891464894001        8.66117347448313     
   8.78383980423448        8.16794191893284     
   9.41414346979639        8.22893322363623     
   4.60151409825547        5.86288889227580     
   9.96204689417841        8.32212164584474     
   4.68049923072508        10.8268392756373     
   4.68431968235954        10.5196220920322     
   5.08318744543235        10.2751504163331     
   5.58551587055378        10.1217514047127     
   4.49423152342530        9.83853007937741     
   4.61863269590267        10.1727786868189     
   6.08518683601569        9.92410998325729     
   4.34500214937102        9.10156505202267     
   4.30296102944567        9.47752682505536     
   6.63963948049843        9.72959131895144     
   4.37700848219133        8.61978033559967     
   4.29572220475610        8.85255011757962     
   4.41401228138028        8.33468125968172     
   6.32200028200262        6.93795532746771     
   6.91856482931980        7.20429820043687     
   7.21510731125968        9.54056810118351     
   4.42391905036714        8.04775971460342     
   5.60212281569127        6.49580663238106     
   4.39030281744287        7.48367759205605     
   4.41451311317528        7.76342700410875     
   7.64226558184164        7.44300233251463     
   7.80663588838343        9.35796342819588     
   4.36012109938717        7.20811244435984     
   4.33150304435566        6.93035242350249     
   5.07808529279742        5.98869151946708     
   4.30296365381063        6.64498014171241     
   8.40921081232603        9.18932140350590     
   8.37190361543627        7.64126648807178     
   9.00915178839153        9.02913766098160     
   9.14411490936759        7.70974747325143     
   4.27543265057132        6.35033303295872     
   4.24405604296522        6.04443148964117     
   4.60005433159179        5.54428137176469     
   4.20384246247140        5.71951213032216     
   9.63579684450140        8.79094759273472     
   9.82599141554094        7.82874118621944     
   10.3476478823638        8.71136881847213     
   4.15387133077188        5.33649503301680     
   10.5422595714395        8.06833966547969     
   11.0179435242344        8.63209038580155     
   3.85512144754216        5.05436444907501     
   11.3298098153150        8.09040652975209     
   11.6705024980667        8.61649519782240     
   3.78606736309856        4.73280969967703     
   15.9085342596639        8.31942962118734     
   15.3998663316181        8.29667312637905     
   14.7991375608996        8.28510917998452     
   14.1608868007687        8.28457686736073     
   13.4852980916867        8.29631780387003     
   12.7220532692748        8.33027853009296     
   12.2081677606006        8.63009840369480     
   12.0118682856972        8.14918612841246     
   3.20058837724490        4.34402529608251     
   4.48382676486655        11.3715761375822     
   4.44348730286706        11.0412353310334     
   4.37502634226951        10.7259527374451     
   5.03075019371245        10.7182591027348     
   5.49080688691710        10.5594483116171     
   4.22763350664751        10.0924933594887     
   4.31538769822210        10.4079721470651     
   5.99254947612715        10.3962151765860     
   3.94375244685106        9.43645961349880     
   3.97231909750317        9.60416785852622     
   4.10876032055772        9.79990062776126     
   6.52230526522810        10.2239245546510     
   4.03887652509990        8.72515555662335     
   4.02347432604830        8.97450759242439     
   4.00836317297235        9.23411849017945     
   6.79073784751765        6.60480059056434     
   7.08045760153352        10.0517829987640     
   4.06649220369172        8.46772613751048     
   4.08013685176407        8.19744460229943     
   6.08169815048383        6.41096899595611     
   4.07874883547168        7.92373039480843     
   7.45820545040483        6.83241870287428     
   7.65869305681134        9.88361565142648     
   4.06477318184866        7.64989356732366     
   4.04191443231312        7.37652675751234     
   4.01415258238553        7.10173164767600     
   5.56252872582995        6.17269149830737     
   8.25187266902979        9.72238815917604     
   8.13833215493520        7.01872611844055     
   8.85564959908575        9.56791178077773     
   8.85075202746946        7.14783100417155     
   3.98300016778582        6.82226335909667     
   3.94755497938226        6.53557963089732     
   3.90486363124768        6.23984136947092     
   4.85211536719953        5.72522173997018     
   9.47361315099160        9.41082765034102     
   9.56896924689621        7.26138940862001     
   10.1175348332892        9.27998655429404     
   4.48054993982792        5.08109568403303     
   3.76970535984138        5.61045078847970     
   3.84914549239176        5.93248690570542     
   10.2749309232206        7.39929992061911     
   10.7709956700642        9.19197762210650     
   4.09172475345392        4.89924682271974     
   3.62879457297226        5.29842395814298     
   10.9911459275168        7.51100388461890     
   11.4078534857198        9.13004230747615     
   3.44932720568466        5.00876548495869     
   3.37679016277727        4.64119092504477     
   21.2171815812169        8.30769087944407     
   20.8107891304437        8.44258237782856     
   20.3123437864047        8.34891982868611     
   19.6472146254352        8.28623288955152     
   18.8773225984947        8.22876752796820     
   18.3367608732965        7.91081585825713     
   18.1834249538402        8.42162321720569     
   17.8012706270256        7.94222143281822     
   17.5452012448869        8.50205269929366     
   17.1572773774623        7.97363111631797     
   16.8929371657942        8.57049650829581     
   16.4155544304526        8.01756094472933     
   16.2751825657303        8.67911244720266     
   15.7380689728590        7.83735530269885     
   15.7055312655541        8.76941002183296     
   15.1131784944489        7.77606417249450     
   15.1238603563238        8.79655627454792     
   14.5112173243307        8.81445470554210     
   14.4712269541729        7.74745630964209     
   13.8739089566523        8.83912084191463     
   13.8051648362665        7.73168353672115     
   13.2164247449050        8.88456418798507     
   13.1083802899270        7.71630826928287     
   12.5927585534489        8.98585923912216     
   12.4003070871150        7.66072575855642     
   12.0117203374721        9.08171978286362     
   11.7016602011398        7.58050938357110     
   2.31394862586168        3.79032163168232     
   2.72403658133666        3.76357195280080     
   2.84504719784918        4.12499818105976     
   3.12515396507047        4.01698145572793     
   4.42674110835914        11.7061590786812     
   4.19954994520313        11.5249537463229     
   4.15718234479764        11.2517701244347     
   4.09646082730437        10.9409194912517     
   4.86770790543490        11.1365721807085     
   5.37560037687844        10.9991775713522     
   4.02952978771008        10.6278895221927     
   5.87335969855745        10.8533569025930     
   3.87067738463254        10.0283442406552     
   3.95599801708280        10.3200288711881     
   3.78197699204212        9.77193522747156     
   3.72168807680632        9.54919575942819     
   6.39238741883440        10.7023092212620     
   3.71999369357695        9.09560930917905     
   3.71057957567845        9.33093933628749     
   6.93527597213045        10.5483070353538     
   3.73690636707363        8.59551609796479     
   3.72733022538797        8.84754722878027     
   3.74499827273933        8.33733842003984     
   6.61647403873924        5.99946121556980     
   7.31210885847772        6.26044219337621     
   7.49987148474634        10.3953462552088     
   3.74523104726902        8.07386956111913     
   3.71921385481047        7.54003425294343     
   5.87675862316281        5.86119821262640     
   3.73633618404954        7.80772332286196     
   7.90488810986197        6.48036249276183     
   8.08197242533559        10.2465864150477     
   8.67792834361173        10.1040543854595     
   8.55470811348563        6.58469919491979     
   3.62933184528984        6.71973457794041     
   5.36358178824066        5.67814584264090     
   3.66567889027722        6.99759223217245     
   3.69538457867602        7.27046222182966     
   9.28613649081220        9.96847038032226     
   9.27577515558763        6.68812681801156     
   9.90722325547373        9.84598748622115     
   4.93043343681547        5.31354133385139     
   3.52434762599390        6.14385123669185     
   3.58375374796721        6.43550395588337     
   9.98936999733208        6.81122112997778     
   10.5371797711004        9.74612387693630     
   3.44435778126753        5.84472347359745     
   4.34361519530165        4.61014261816882     
   3.33571780117768        5.54389481954528     
   10.6789555311294        6.93128220203424     
   11.1647290375288        9.66865208175935     
   3.20817353987280        5.25383682888459     
   3.87826757249366        4.37111028109100     
   3.09838456603924        5.00340784656347     
   29.3594128421843        8.30491040862056     
   28.7755272158361        8.27480579981347     
   28.0916560117925        8.25793584517131     
   27.3718564589385        8.25360994068812     
   26.6187028860552        8.26225404618347     
   25.7809669086930        8.29338668954547     
   25.2021954004659        8.62451401030781     
   25.0391516254549        8.07918150484790     
   24.3604659734056        8.00393159096515     
   24.6435399599092        8.59113564039795     
   23.9890226037098        8.57007601411077     
   23.6707339744606        7.96582635097348     
   23.3003642624578        8.55973804600759     
   22.9642696528858        7.94083949954319     
   22.5810594060938        8.55756934354367     
   22.2396524877377        7.91545431272882     
   21.7870602658986        8.56108235443950     
   21.5340335239060        7.85907248172210     
   21.1418258806048        8.80804931068696     
   20.8108770142573        7.87146915694117     
   20.5701432920151        8.88002843253495     
   20.0757995810392        7.73706881667377     
   19.9570867283677        8.87875874783430     
   19.3736895385256        7.64763512528289     
   19.2842184863607        8.87798526016240     
   18.7139841619872        7.52782498183555     
   18.5984045070573        8.93013806673951     
   18.1034758143715        7.43407725034939     
   17.9375069736293        9.01627816304389     
   17.4764793773574        7.41148791619085     
   17.2940446921019        9.08882239068272     
   16.8060504839446        7.39868396004951     
   16.6647430936521        9.16327423224407     
   16.1227516698807        7.34585395264503     
   16.0573163144283        9.23706029503707     
   15.4570755503572        7.27099932672420     
   15.4607186263312        9.29134838029663     
   14.7981150204341        7.22227585337245     
   14.8567258896569        9.32723060756893     
   14.2395439848509        9.36034652059825     
   14.1300875633723        7.18989730941966     
   13.6127080537437        9.40224170562996     
   13.4481511892464        7.16224208893732     
   12.9898974740632        9.46319218796490     
   12.7555417018817        7.12558380008946     
   12.3826934036848        9.53685923400779     
   12.0615620866914        7.07394326811921     
   11.7797516149120        9.60431099813177     
   11.3684716983338        7.01143804221117     
   3.50076733560066        4.24124143642645     
   2.92883374030451        4.59340134856644     
   1.51860303784402        3.06243417337771     
   1.99485544426340        3.31878962723455     
   1.88858390252744        3.57914181851995     
   2.21462521987205        3.46113605379488     
   2.68027426667687        3.46064040217757     
   2.05236589654029        3.81353934239238     
   2.39822293425862        4.06407510769528     
   3.12677328932874        3.75386333577176     
   4.34147815884944        12.0049123685199     
   4.03171046799036        11.8211937987155     
   3.89837150391832        11.4762323869710     
   3.82191609816268        11.1602137192820     
   4.80801987901059        11.5722925700226     
   5.25094959548928        11.4316953743210     
   3.75258300778610        10.8458001280363     
   5.73865660542197        11.3012366648732     
   3.68287322379747        10.5366860415943     
   3.61093104509805        10.2390071378179     
   3.53958867093801        9.96045069605826     
   3.47957594448518        9.70408532351352     
   6.24800849985554        11.1679901398835     
   6.77920825386980        11.0315950268844     
   3.42147966480545        8.72663213550660     
   3.42256356828372        8.97615375369270     
   3.42732466331828        9.22147077500791     
   3.44258806059891        9.46199609706515     
   3.42138278571064        8.47379152776751     
   6.92572987214600        5.62662592188012     
   7.33130156049179        10.8943405203965     
   3.41885148131612        8.21747099903861     
   6.39736641062170        5.40697542578599     
   3.41122166163238        7.95824337662273     
   7.53201621047702        5.84206568713456     
   7.90177896647806        10.7592275429454     
   8.48745806474875        10.6289818227764     
   8.18019435917714        6.04916718073809     
   5.87896257903879        5.26753515869178     
   3.35152505312842        7.16745406868168     
   3.37768467002260        7.43337997725385     
   3.39753208175434        7.69682806918824     
   9.08547694608671        10.5059242898157     
   8.93063269502808        6.14005978653353     
   9.69358931508593        10.3930867119824     
   5.34174372856326        5.14048466834773     
   3.27501102091773        6.62513790185738     
   3.31807056941098        6.89828264777688     
   9.70886300749966        6.19884249404264     
   10.3088194729841        10.2945032227293     
   3.14277096339235        6.06543938028286     
   4.84359903137214        4.84015533570576     
   3.21842825095643        6.34755383946926     
   10.3746271340780        6.40345030521987     
   10.9259797866368        10.2119738456223     
   2.81797668628124        5.19638155885553     
   4.25234804658885        4.24050402351393     
   3.04226922128675        5.77921148095811     
   2.92001378995045        5.48859833307086     
   37.3912844627960        8.30374512421244     
   36.7558613524155        8.26048868997255     
   36.0065006775948        8.22574653608885     
   35.2040258014717        8.19347322048895     
   34.3039772419770        8.14778322501380     
   33.6826107144956        7.78911135270840     
   33.5013050628524        8.37500290137152     
   33.0748954919062        7.82672751138263     
   32.7698160010994        8.45903382858868     
   32.3625852678775        7.85639895825468     
   32.0276850780537        8.50950140536965     
   31.6126049682105        7.88185043104894     
   31.2699874427501        8.55460410492332     
   30.8278779332961        7.90998995066590     
   30.4994676465903        8.61405065087873     
   29.9552908457164        7.95539479710853     
   29.7755947569501        8.72973113696044     
   29.1768079788853        7.74131285703323     
   29.1136992626459        8.82781109499614     
   28.4671512365715        7.66872449201005     
   28.4443998802853        8.85355240739663     
   27.7460779489500        7.63422036290381     
   27.7450128086016        8.86880135697549     
   27.0236656156148        8.89101756165717     
   27.0062511959648        7.61390873430406     
   26.2866910865564        8.93471845454351     
   26.2431662929017        7.59348703389674     
   25.5918590881923        9.03792237117479     
   25.4855570990491        7.52817410636166     
   24.7627410002645        7.44047774477631     
   24.9562918679967        9.12732978939834     
   24.3149880646688        9.14784367587732     
   24.0580448286970        7.38312216580159     
   23.6448391144997        9.15753746354691     
   23.3524172570437        7.34304958925337     
   22.9528026085502        9.17156093546826     
   22.6411539921187        7.30872132625842     
   22.2423072490708        9.20114060479141     
   21.9295300861493        7.27026590483788     
   21.5528208830775        9.28239720656507     
   21.2184180931873        7.23280437035144     
   20.9120922167962        9.37750887390599     
   20.5054471049648        7.17569688110634     
   20.2853620390499        9.42665641621380     
   19.8023275924563        7.09502000470731     
   19.6412542291532        9.45431504881165     
   19.1219431182526        7.01241199210288     
   18.9813799629619        9.49060050907102     
   18.4665015254311        6.93387568229819     
   18.3233137529229        9.54606657606171     
   17.8208208476152        6.87834286361740     
   17.6768390168108        9.60951512439826     
   17.1636667800311        6.84197550907515     
   17.0426636043492        9.67239918617553     
   16.4921711569651        6.80192319452872     
   16.4213389668324        9.73373190728008     
   15.8159940347439        6.74951017355588     
   15.8106379933879        9.78853811751713     
   15.1384314274455        6.69659221616989     
   15.2032256211637        9.83346147605716     
   14.4574641798255        6.65536091381478     
   14.5927457044747        9.87253152029493     
   13.9780823105367        9.91308613562330     
   13.7729263117454        6.62462174149361     
   13.3630659345564        9.96119985493742     
   13.0823340311897        6.59173415544801     
   12.7528204844588        10.0181625288275     
   12.3908355621076        6.55752794938463     
   12.1469742514037        10.0794308248496     
   11.7044770149339        6.51951230823567     
   11.5393864367937        10.1424786047407     
   11.0204362502538        6.46608889032826     
   3.92445468094651        4.03869816072564     
   2.76823362209709        4.90430026113758     
   2.60864153819321        4.45347695669778     
   1.28813419864044        3.10729692388883     
   1.31934562105596        2.95439912157513     
   1.79929999796333        3.10913762113237     
   1.68787877263473        3.36342074590550     
   2.10565051220573        3.13990153989501     
   2.41478308248058        3.19603492820550     
   1.81116963965281        3.86052587518253     
   3.07470610683952        3.46463104170802     
   4.04040062706758        12.2641725355196     
   3.67040084807058        12.3484683736234     
   3.68552279412898        12.0562910172623     
   3.63026878094641        11.7154505056962     
   3.55066368520448        11.3860600432938     
   4.69553510121437        11.9431137279628     
   5.12293849348053        11.8469683706959     
   3.47819305931073        11.0656538650782     
   5.59248075524883        11.7373680140454     
   3.40936808948964        10.7515809904923     
   3.34236092416676        10.4466064575005     
   3.27807593498078        10.1547607813883     
   6.09130852702211        11.6223830797893     
   6.61244457068749        11.5031245033360     
   3.12743070863516        9.11290694111135     
   3.14545516332386        9.36335174285067     
   3.17555022331804        9.61670650242885     
   3.22059567953740        9.87865685355017     
   3.11653041478806        8.86243130000237     
   3.10899746366320        8.61101397039303     
   7.15372126514785        11.3815993506798     
   3.10202850127571        8.35818137101715     
   7.16844665359327        5.17754049906645     
   7.60381281524206        5.28500995689685     
   7.71320262197187        11.2604847846461     
   8.19157937285816        5.44156752077539     
   8.28836078822052        11.1425893533114     
   3.09322800382250        8.10365395250765     
   6.51646657917038        4.96099772678209     
   3.06402333519043        7.58964057261552     
   3.08090514590604        7.84745042946008     
   8.87631520023238        11.0305191307779     
   8.89286834548543        5.54436883157471     
   9.47416794710287        10.9267251881759     
   5.88739058071131        4.72575365259828     
   2.97501479974880        6.80552470077090     
   3.01274879303232        7.06883033493454     
   3.04171887811041        7.33015900198709     
   9.47862488612426        5.58296409509770     
   10.0789239744615        10.8335353856258     
   5.16663247607037        4.55370774372795     
   2.92517806208603        6.54033507437547     
   9.98471231852356        5.77579740513554     
   10.6871608495572        10.7523553885645     
   4.58755759817179        4.38561811136416     
   2.76717840298207        6.00562508979007     
   2.85827232189025        6.27364255768227     
   48.2523797020943        8.06338478480666     
   47.5640367459664        8.10480617766212     
   46.7608738018351        8.13526575724009     
   45.9217017453070        8.15849611332319     
   45.0594263339137        8.18035043217512     
   44.1656327774628        8.20772828428912     
   43.1770206683589        8.25664083598515     
   42.5024061469948        8.65283723137960     
   42.2997736131320        8.01290928799300     
   41.8452079236399        8.61854970489180     
   41.5020183594368        7.93336086835303     
   41.0782745481469        8.60109434068162     