 TITLE = "Adapted Mesh"
 VARIABLES = "X", "Y"
 ZONE T = "Domain", N=        5383 E=       10374 
 DATAPACKING=POINT, ZONETYPE=FEQUADRILATERAL
  0.000000000000000E+000   3.25000000000000     
  0.000000000000000E+000   3.35065440820481     
  0.000000000000000E+000   3.45408305581161     
  0.000000000000000E+000   3.56048430903498     
  0.000000000000000E+000   3.67004194402138     
  0.000000000000000E+000   3.78292670606310     
  0.000000000000000E+000   3.89953802048711     
  0.000000000000000E+000   4.01989794031216     
  0.000000000000000E+000   4.14389246311028     
  0.000000000000000E+000   4.27166058920092     
  0.000000000000000E+000   4.40333268811658     
  0.000000000000000E+000   4.53903127661026     
  0.000000000000000E+000   4.67887170985512     
  0.000000000000000E+000   4.82296279176263     
  0.000000000000000E+000   4.97179232971223     
  0.000000000000000E+000   5.12524192692752     
  0.000000000000000E+000   5.28332193539893     
  0.000000000000000E+000   5.44611548428505     
  0.000000000000000E+000   5.61370321624037     
  0.000000000000000E+000   5.78710884280579     
  0.000000000000000E+000   5.96552295867081     
  0.000000000000000E+000   6.14923005357088     
  0.000000000000000E+000   6.33906363309202     
  0.000000000000000E+000   6.53417860009203     
  0.000000000000000E+000   6.73595100892125     
  0.000000000000000E+000   6.94345058505793     
  0.000000000000000E+000   7.15762147597203     
  0.000000000000000E+000   7.37837320587652     
  0.000000000000000E+000   7.60573693024928     
  0.000000000000000E+000   7.84013184831114     
  0.000000000000000E+000   8.08199652084417     
  0.000000000000000E+000   8.33123592048883     
  0.000000000000000E+000   8.58812135731189     
  0.000000000000000E+000   8.85290749800328     
  0.000000000000000E+000   9.12583385215647     
  0.000000000000000E+000   9.40712608682799     
  0.000000000000000E+000   9.69716995674931     
  0.000000000000000E+000   9.99629546742320     
  0.000000000000000E+000   10.3044834647838     
  0.000000000000000E+000   10.6221390235924     
  0.000000000000000E+000   10.9497464896789     
  0.000000000000000E+000   11.2873114095262     
  0.000000000000000E+000   11.6353110119263     
  0.000000000000000E+000   11.9941592780014     
  0.000000000000000E+000   12.3639812472497     
  0.000000000000000E+000   12.7451893719921     
  0.000000000000000E+000   13.1381705762379     
  0.000000000000000E+000   13.5432888877409     
  0.000000000000000E+000   13.9608868377879     
  0.000000000000000E+000   14.3912877775972     
  0.000000000000000E+000   14.8350577742103     
  0.000000000000000E+000   15.2925046077387     
  0.000000000000000E+000   15.7640383416259     
  0.000000000000000E+000   16.2500000000000     
  0.100000000000000        3.24999999535898     
  0.100000000000000        3.35065440356379     
  0.100000000000000        3.45408305117059     
  0.100000000000000        3.56048430439396     
  0.100000000000000        3.67004193938036     
  0.100000000000000        3.78292670142208     
  0.100000000000000        3.89953801584609     
  0.100000000000000        4.01989793567114     
  0.100000000000000        4.14389245846926     
  0.100000000000000        4.27166058455990     
  0.100000000000000        4.40333268347556     
  0.100000000000000        4.53903127196924     
  0.100000000000000        4.67887170521410     
  0.100000000000000        4.82296278712161     
  0.100000000000000        4.97179232507121     
  0.100000000000000        5.12524192228650     
  0.100000000000000        5.28332193075791     
  0.100000000000000        5.44611547964403     
  0.100000000000000        5.61370321159935     
  0.100000000000000        5.78710883816477     
  0.100000000000000        5.96552295402979     
  0.100000000000000        6.14923004892986     
  0.100000000000000        6.33906362845100     
  0.100000000000000        6.53417859545101     
  0.100000000000000        6.73595100428023     
  0.100000000000000        6.94345058041691     
  0.100000000000000        7.15762147133101     
  0.100000000000000        7.37837320123550     
  0.100000000000000        7.60573692560826     
  0.100000000000000        7.84013184367012     
  0.100000000000000        8.08199651620315     
  0.100000000000000        8.33123591584781     
  0.100000000000000        8.58812135267087     
  0.100000000000000        8.85290749336226     
  0.100000000000000        9.12583384751545     
  0.100000000000000        9.40712608218697     
  0.100000000000000        9.69716995210829     
  0.100000000000000        9.99629546278218     
  0.100000000000000        10.3044834601428     
  0.100000000000000        10.6221390189514     
  0.100000000000000        10.9497464850378     
  0.100000000000000        11.2873114048852     
  0.100000000000000        11.6353110072853     
  0.100000000000000        11.9941592733604     
  0.100000000000000        12.3639812426086     
  0.100000000000000        12.7451893673511     
  0.100000000000000        13.1381705715969     
  0.100000000000000        13.5432888830999     
  0.100000000000000        13.9608868331469     
  0.100000000000000        14.3912877729562     
  0.100000000000000        14.8350577695693     
  0.100000000000000        15.2925046030977     
  0.100000000000000        15.7640383369848     
  0.100000000000000        16.2499999860769     
   64.3600222706514       0.626078326545448     
  -7.88026582786396       0.218091075096175     
  -7.79906581221376        5.66174060539889     
   6.23088961525811        7.95666374406463     
   5.86770339149482        8.27725039054658     
   5.85761511715996        7.68648843024501     
   5.79056167831350        7.98079514662294     
   5.85220488679865        8.66824573794150     
   5.45859709423898        8.78223847091395     
   6.32898626969809        8.43739199721638     
   5.48822534569773        8.47600284687233     
   6.88034209555429        8.11274035561876     
   6.21898717939356        7.57411344292855     
   5.48504017246074        8.15169038556084     
   5.47119821303079        7.49951927859680     
   5.47945923040841        7.83848872474217     
   5.36213336430235        7.10504405801124     
   5.26410171584984        9.92935234889939     
   5.15045015761357        9.69072040087516     
   5.67079341164515        9.11853831496161     
   5.14604619009981        9.00112109481511     
   5.18598507070538        9.37890283817030     
   6.27269114165669        8.92583261691260     
   5.11267090181601        8.65427186970686     
   6.83955636411218        8.69326877795012     
   6.63770474989761        7.63745404826980     
   5.92142676665908        7.27689139867473     
   5.12877301707834        8.01426270093348     
   5.12694259018215        8.32831686805769     
   5.32572036758086        6.71132701864084     
   4.99109944657933        6.89169276740245     
   5.11390153505646        7.70268468707098     
   4.96172360113255        7.14812211352480     
   5.06333426818516        7.39240947280203     
   7.52144096748578        7.94803575617000     
   7.43983601282308        8.46298998690716     
   4.95918503589554        6.58677962091861     
   8.08222807330809        8.21216639259830     
   4.90784216021673        6.31656037738043     
   9.08831656455277        8.57205043160170     
   4.90285226160615        9.91380644731051     
   5.58940722855925        9.65453815055496     
   4.79874828330791        9.58664283739088     
   6.17076443114417        9.42720647835106     
   4.68403742021387        8.84961240914405     
   4.74592708047857        9.23096777198615     
   6.74941513568720        9.21972203686782     
   6.41119179762587        7.32360790757359     
   4.75084145699566        8.49429530466725     
   4.77231623958252        8.18348037199790     
   5.77397911054446        6.82108647810550     
   4.74550093425340        7.58962987480022     
   4.76983542820244        7.88352950554108     
   7.12816944608952        7.66611314165621     
   7.33690602362819        9.01250687898192     
   4.64839618936259        6.76077199237669     
   5.24242893902587        6.37654125830149     
   4.66858400434907        7.04177775274003     
   4.70137597614710        7.31088915894086     
   7.94425453045298        8.81347008272069     
   7.91542378547762        7.80684662090417     
   4.62315499024216        6.17056317030010     
   4.62164461998882        6.47076983119877     
   8.55891464702583        8.66117347777200     
   8.78383979403898        8.16794193862500     
   9.41414343523644        8.22893323409899     
   4.60150435565619        5.86288623376204     
   9.96204678333805        8.32212165356711     
   4.68049923072508        10.8268392756373     
   4.68431968235954        10.5196220920322     
   5.08318744543235        10.2751504163331     
   5.58551587055378        10.1217514047128     
   4.49423152342530        9.83853007937741     
   4.61863269590267        10.1727786868189     
   6.08518683601576        9.92410998325876     
   4.34500214937102        9.10156505202269     
   4.30296102944567        9.47752682505537     
   6.63963948049877        9.72959131896258     
   4.37700848219124        8.61978033559970     
   4.29572220475610        8.85255011757963     
   4.41401228137944        8.33468125968157     
   6.32200013204295        6.93795501918762     
   6.91856511625126        7.20429866287161     
   7.21510731125440        9.54056810123636     
   4.42391905036119        8.04775971460051     
   5.60212137672880        6.49580486819582     
   4.39030281726661        7.48367759197842     
   4.41451311314052        7.76342700408624     
   7.64226566378149        7.44300269844043     
   7.80663588830929        9.35796342838329     
   4.36012109821432        7.20811244396618     
   4.33150303574389        6.93035242090821     
   5.07807350026977        5.98868385156136     
   4.30296359178110        6.64498012624082     
   8.40921081177353        9.18932140392826     
   8.37190359363945        7.64126663785924     
   9.00915178462615        9.02913766187389     
   9.14411485623816        7.70974752769462     
   4.27543222936936        6.35033295274322     
   4.24405369773074        6.04443131676317     
   4.59999911306455        5.54426864145186     
   4.20383124225657        5.71951242192973     
   9.63579681641853        8.79094759591594     
   9.82599124846614        7.82874120851640     
   10.3476477386334        8.71136882195499     
   4.15383958425994        5.33650800374382     
   10.5422589152624        8.06833965105215     
   11.0179429862942        8.63209035911519     
   3.85505514294705        5.05442391847589     
   11.3298073695156        8.09040626433815     
   11.6705009441795        8.61649501030922     
   3.78545364726492        4.73321441186983     
   15.9084992246524        8.31941635296789     
   15.3998206258589        8.29665572245420     
   14.7990873110920        8.28509059589416     
   14.1608428655027        8.28456167248343     
   13.4852680654408        8.29630853377410     
   12.7220383929610        8.33027469764925     
   12.2081643493142        8.63009779115646     
   12.0118614456197        8.14918484444678     
   3.19932998802915        4.34341683683491     
   4.48382676486655        11.3715761375822     
   4.44348730286706        11.0412353310334     
   4.37502634226951        10.7259527374451     
   5.03075019371245        10.7182591027348     
   5.49080688691710        10.5594483116171     
   4.22763350664751        10.0924933594887     
   4.31538769822210        10.4079721470651     
   5.99254947612714        10.3962151765860     
   3.94375244685106        9.43645961349880     
   3.97231909750317        9.60416785852622     
   4.10876032055772        9.79990062776126     
   6.52230526522797        10.2239245546517     
   4.03887652509989        8.72515555662335     
   4.02347432604829        8.97450759242440     
   4.00836317297235        9.23411849017945     
   6.79073999159195        6.60480226183162     
   7.08045760153183        10.0517829987676     
   4.06649220369163        8.46772613751048     
   4.08013685176335        8.19744460229942     
   6.08169311077890        6.41096252791102     
   4.07874883546650        7.92373039480840     
   7.45820617387222        6.83242099363422     
   7.65869305679503        9.88361565144167     
   4.06477318181300        7.64989356732779     
   4.04191443205054        7.37652675755068     
   4.01415258046718        7.10173164792760     
   5.56251903090503        6.17268182726412     
   8.25187266890084        9.72238815922693     
   8.13833203606674        7.01872704981657     
   8.85564959817322        9.56791178096079     
   8.85075183636623        7.14783129369029     
   3.98300015445651        6.82226336072077     
   3.94755489344923        6.53557964214763     
   3.90486315037060        6.23984145793471     
   4.85209747330475        5.72521563877284     
   9.47361314520812        9.41082765108067     
   9.56896908827359        7.26138946686028     
   10.1175348047765        9.27998655616731     
   4.48048762644266        5.08113381045732     
   3.76969838585104        5.61045467833557     
   3.84914329289844        5.93248752252865     
   10.2749302715258        7.39929994162406     
   10.7709955602478        9.19197762230523     
   4.09150004415713        4.89940373616090     
   3.62877854699104        5.29843976004705     
   10.9911430675755        7.51100367295612     
   11.4078531385705        9.13004228551535     
   3.44929867876501        5.00880868881303     
   3.37656434995726        4.64152342449034     
   21.2171815620358        8.30769087473027     
   20.8107890987597        8.44258237032983     
   20.3123436422357        8.34891979082788     
   19.6472140263239        8.28623271531552     
   18.8773203397731        8.22876680005141     
   18.3367539951841        7.91081338696472     
   18.1834208742227        8.42162189233928     
   17.8012541613946        7.94221490042767     
   17.5451922899046        8.50204952726790     
   17.1572410455875        7.97361563808772     
   16.8929211716916        8.57049051369932     
   16.4154891093136        8.01753203538115     
   16.2751661100221        8.67910654084854     
   15.7379563581879        7.83730517678525     
   15.7055171376117        8.76940546080812     
   15.1130356403965        7.77600203553896     
   15.1238446277956        8.79655128476879     
   14.5112020195707        8.81445005585555     
   14.4710860126759        7.74739840951061     
   13.8738969180095        8.83911748348742     
   13.8050580806514        7.73164380929200     
   13.2164173645918        8.88456239301990     
   13.1083184887225        7.71628862247021     
   12.5927553511872        8.98585860831774     
   12.4002793422246        7.66071889014028     
   12.0117193551978        9.08171965759447     
   11.7016502527372        7.58050774520128     
   2.31266226046852        3.79023222534152     
   2.72384398438393        3.76331304848273     
   2.84711988656853        4.12803005215134     
   3.12448529622980        4.01935417383585     
   4.42674110835914        11.7061590786812     
   4.19954994520313        11.5249537463229     
   4.15718234479764        11.2517701244347     
   4.09646082730437        10.9409194912517     
   4.86770790543490        11.1365721807085     
   5.37560037687844        10.9991775713522     
   4.02952978771008        10.6278895221927     
   5.87335969855745        10.8533569025930     
   3.87067738463254        10.0283442406552     
   3.95599801708280        10.3200288711881     
   3.78197699204212        9.77193522747156     
   3.72168807680632        9.54919575942819     
   6.39238741883437        10.7023092212620     
   3.71999369357695        9.09560930917905     
   3.71057957567845        9.33093933628749     
   6.93527597213013        10.5483070353540     
   3.73690636707362        8.59551609796480     
   3.72733022538797        8.84754722878027     
   3.74499827273922        8.33733842003988     
   6.61649164787085        5.99945978623671     
   7.31211369388467        6.26045439378940     
   7.49987148474339        10.3953462552100     
   3.74523104726807        8.07386956111947     
   3.71921385475029        7.54003425296708     
   5.87668602861842        5.86113416698250     
   3.73633618404182        7.80772332286499     
   7.90488739834826        6.48036670302697     
   8.08197242531157        10.2465864150540     
   8.67792834344138        10.1040543854912     
   8.55470658963941        6.58470040276796     
   3.62933182735113        6.71973458496301     
   5.36350045492685        5.67809541077070     
   3.66567888733501        6.99759223328948     
   3.69538457823730        7.27046222199748     
   9.28613648977855        9.96847038046865     
   9.27577486671947        6.68812667257996     
   9.90722325037748        9.84598748670603     
   4.93011872823745        5.31345282353737     
   3.52434719703536        6.14385146233811     
   3.58375365173924        6.43550399750497     
   9.98936987005132        6.81122106797669     
   10.5371797505911        9.74612387779775     
   3.44435633415235        5.84472456176672     
   4.34173840098583        4.61013505793350     
   3.33571420007823        5.54389901213092     
   10.6789535295074        6.93128215634214     
   11.1647289672366        9.66865208067181     
   3.20816700948161        5.25384955150649     
   3.87102568527185        4.37138400086216     
   3.09837781681352        5.00343980001964     
   29.3594128421843        8.30491040862056     
   28.7755272158361        8.27480579981347     
   28.0916560117925        8.25793584517131     
   27.3718564589385        8.25360994068812     
   26.6187028860552        8.26225404618346     
   25.7809669086929        8.29338668954544     
   25.2021954004656        8.62451401030776     
   25.0391516254535        8.07918150484759     
   24.3604659733924        8.00393159096219     
   24.6435399599072        8.59113564039754     
   23.9890226036927        8.57007601410723     
   23.6707339743534        7.96582635094890     
   23.3003642623305        8.55973804598080     
   22.9642696521184        7.94083949936092     
   22.5810594052752        8.55756934336536     
   22.2396524828943        7.91545431151609     
   21.7870602613551        8.56108235340450     
   21.5340334969482        7.85907247447209     
   21.1418258733150        8.80804930919985     
   20.8108768798377        7.87146911769534     
   20.5701432637759        8.88002842645868     
   20.0757989430641        7.73706861164126     
   19.9570866108589        8.87875872007344     
   19.3736870650388        7.64763424027454     
   19.2842180774004        8.87798515411565     
   18.7139758496402        7.52782167088214     
   18.5984035580633        8.93013781249261     
   18.1034516879327        7.43406665030876     
   17.9375049708348        9.01627758739975     
   17.4764187280856        7.41145909592774     
   17.2940409878849        9.08882125095204     
   16.8059203484139        7.39861880732321     
   16.6647382848699        9.16327275667045     
   16.1225164654212        7.34573394745627     
   16.0573116302813        9.23705896445533     
   15.4567303478964        7.27082636278735     
   15.4607140472631        9.29134717481286     
   14.7977214863976        7.22208926312384     
   14.8567212384652        9.32722942568126     
   14.2395399040970        9.36034554910140     
   14.1297514839375        7.18975237423132     
   13.6127051455579        9.40224108704860     
   13.4479397049721        7.16216348343044     
   12.9898958614224        9.46319189962944     
   12.7554423885785        7.12555452919550     
   12.3826927363544        9.53685914433574     
   12.0615262768792        7.07393585753044     
   11.7797513955135        9.60431098172792     
   11.3684617271576        7.01143687214024     
   3.49242160349461        4.23424555673052     
   2.92901267841072        4.59355265858015     
   1.50361226968403        3.06785342848358     
   1.99258144310971        3.31721870401394     
   1.86665446656601        3.58825855312688     
   2.21038130584225        3.46114782925662     
   2.67942965377761        3.45870024165662     
   2.04729667698942        3.81350402297127     
   2.39203063362041        4.07864766532906     
   3.12574433737755        3.75343043729524     
   4.34147815884944        12.0049123685199     
   4.03171046799036        11.8211937987155     
   3.89837150391832        11.4762323869710     
   3.82191609816268        11.1602137192820     
   4.80801987901059        11.5722925700226     
   5.25094959548928        11.4316953743210     
   3.75258300778610        10.8458001280363     
   5.73865660542197        11.3012366648732     
   3.68287322379747        10.5366860415943     
   3.61093104509805        10.2390071378179     
   3.53958867093801        9.96045069605826     
   3.47957594448518        9.70408532351352     
   6.24800849985554        11.1679901398835     
   6.77920825386975        11.0315950268844     
   3.42147966480545        8.72663213550660     
   3.42256356828372        8.97615375369270     
   3.42732466331828        9.22147077500791     
   3.44258806059891        9.46199609706515     
   3.42138278571062        8.47379152776752     
   6.92597210540417        5.62672232710424     
   7.33130156049135        10.8943405203966     
   3.41885148131594        8.21747099903870     
   6.39748816800387        5.40654778219860     
   3.41122166163081        7.95824337662352     
   7.53201456209551        5.84211973225929     
   7.90177896647437        10.7592275429462     
   8.48745806472217        10.6289818227811     
   8.18018116986898        6.04917177901409     
   5.87697287083602        5.26655019691105     
   3.35152505251092        7.16745406899652     
   3.37768466992947        7.43337997730004     
   3.39753208174165        7.69682806919453     
   9.08547694592499        10.5059242898396     
   8.93063016477325        6.14005529355159     
   9.69358931426899        10.3930867120743     
   5.33991366662083        5.13995113991449     
   3.27501100188577        6.62513791334004     
   3.31807056574940        6.89828264976359     
   9.70886460077765        6.19884065483252     
   10.3088194695247        10.2945032229698     
   3.14277067240628        6.06543965333077     
   4.84385676498487        4.84041789881947     
   3.21842816749053        6.34755389913523     
   10.3746277771229        6.40345009056705     
   10.9259797739363        10.2119738458936     
   2.81797564661824        5.19639240230459     
   4.25162946178503        4.24676825886442     
   3.04226845348271        5.77921254598961     
   2.92001236789206        5.48860189747580     
   37.3912844627960        8.30374512421244     
   36.7558613524155        8.26048868997255     
   36.0065006775948        8.22574653608885     
   35.2040258014717        8.19347322048895     
   34.3039772419770        8.14778322501380     
   33.6826107144956        7.78911135270840     
   33.5013050628524        8.37500290137152     
   33.0748954919062        7.82672751138263     
   32.7698160010994        8.45903382858868     
   32.3625852678775        7.85639895825468     
   32.0276850780537        8.50950140536965     
   31.6126049682105        7.88185043104894     
   31.2699874427501        8.55460410492332     
   30.8278779332961        7.90998995066590     
   30.4994676465903        8.61405065087873     
   29.9552908457164        7.95539479710853     
   29.7755947569501        8.72973113696044     
   29.1768079788853        7.74131285703323     
   29.1136992626459        8.82781109499614     
   28.4671512365715        7.66872449201005     
   28.4443998802853        8.85355240739663     
   27.7460779489500        7.63422036290381     
   27.7450128086016        8.86880135697549     
   27.0236656156148        8.89101756165717     
   27.0062511959648        7.61390873430406     
   26.2866910865563        8.93471845454351     
   26.2431662929017        7.59348703389673     
   25.5918590881923        9.03792237117479     
   25.4855570990483        7.52817410636145     
   24.7627410002561        7.44047774477424     
   24.9562918679964        9.12732978939829     
   24.3149880646665        9.14784367587689     
   24.0580448286241        7.38312216578319     
   23.6448391144825        9.15753746354362     
   23.3524172564820        7.34304958910677     
   22.9528026084426        9.17156093544728     
   22.6411539882885        7.30872132520843     
   22.2423072485471        9.20114060468749     
   21.9295300630036        7.27026589805142     
   21.5528208817032        9.28239720631421     
   21.2184179689844        7.23280433073761     
   20.9120922119031        9.37750887302678     
   20.5054465127408        7.17569667287941     
   20.2853620188911        9.42665641233237     
   19.8023251153097        7.09501903563025     
   19.6412541590240        9.45431503424486     
   19.1219340260890        7.01240803047429     
   18.9813797791696        9.49060046925144     
   18.4664723223363        6.93386161325681     
   18.3233133440848        9.54606648193545     
   17.8207392233614        6.87830002845571     
   17.6768382322080        9.60951493097728     
   17.1634700636509        6.84186550686202     
   17.0426624421093        9.67239889361397     
   16.4917679430457        6.80169003381902     
   16.4213376560762        9.73373159207901     
   15.8153071485338        6.74911558799195     
   15.8106366988494        9.78853783269110     
   15.1374984736862        6.69608656428630     
   15.2032243404854        9.83346121331452     
   14.4565281587313        6.65490423767539     
   14.5927445046608        9.87253128834046     
   13.9780813513268        9.91308596726913     
   13.7722721378017        6.62434920291411     
   13.3630653105511        9.96119976099115     
   13.0820142935064        6.59163053352199     
   12.7528201645277        10.0181624908607     
   12.3907210283879        6.55750266459144     
   12.1469741235824        10.0794308148369     
   11.7044473136444        6.51950836127987     
   11.5393863946676        10.1424786035219     
   11.0204318276528        6.46608851717275     
   3.92607265788420        4.05091889066682     
   2.76823989499762        4.90433256247460     
   2.61047221474136        4.45360764434403     
   1.29609797978401        3.08926392701676     
   1.28397952913873        2.95156586617555     
   1.82315760101202        3.11168446447596     
   1.67432602638483        3.36042083497856     
   2.11372250468395        3.14045794123492     
   2.41798198073563        3.19427955245484     
   1.78071846355582        3.84650626278805     
   3.07344878801894        3.46296779954744     
   4.04040062706758        12.2641725355196     
   3.67040084807058        12.3484683736234     
   3.68552279412898        12.0562910172623     
   3.63026878094641        11.7154505056962     
   3.55066368520448        11.3860600432938     
   4.69553510121437        11.9431137279628     
   5.12293849348053        11.8469683706959     
   3.47819305931073        11.0656538650782     
   5.59248075524883        11.7373680140454     
   3.40936808948964        10.7515809904923     
   3.34236092416676        10.4466064575005     
   3.27807593498078        10.1547607813883     
   6.09130852702211        11.6223830797893     
   6.61244457068749        11.5031245033360     
   3.12743070863516        9.11290694111135     
   3.14545516332386        9.36335174285067     
   3.17555022331804        9.61670650242885     
   3.22059567953740        9.87865685355017     
   3.11653041478806        8.86243130000237     
   3.10899746366320        8.61101397039303     
   7.15372126514780        11.3815993506798     
   3.10202850127568        8.35818137101716     
   7.17007861843364        5.17939131325585     
   7.60280326110083        5.28521451217098     
   7.71320262197139        11.2604847846461     
   8.19129998102159        5.44136211566559     
   8.28836078821697        11.1425893533120     
   3.09322800382222        8.10365395250781     
   6.55947459521696        4.96360865402335     
   3.06402333517282        7.58964057262512     
   3.08090514590367        7.84745042946136     
   8.87631520021016        11.0305191307812     
   8.89293844616210        5.54424961536023     
   9.47416794698607        10.9267251881898     
   5.88592831946251        4.72631653460988     
   2.97501479616481        6.80552470324740     
   3.01274879233811        7.06883033535980     
   3.04171887799302        7.33015900205369     
   9.47865687180438        5.58294569627625     
   10.0789239739388        10.8335353856701     
   5.16698812732896        4.55540545205596     
   2.92517804635910        6.54033508732570     
   9.98470100801030        5.77579130812841     
   10.6871608475152        10.7523553886592     
   4.61487878580447        4.38859944862228     
   2.76717824681479        6.00562533011738     
   2.85827226558519        6.27364261748922     
   48.2523797020943        8.06338478480666     
   47.5640367459664        8.10480617766212     
   46.7608738018351        8.13526575724009     
   45.9217017453070        8.15849611332319     
   45.0594263339137        8.18035043217512     
   44.1656327774628        8.20772828428912     
   43.1770206683589        8.25664083598515     
   42.5024061469948        8.65283723137960     
   42.2997736131320        8.01290928799300     
   41.8452079236399        8.61854970489180     
   41.5020183594368        7.93336086835303     
   41.0782745481469        8.60109434068162     