 TITLE = "Edge Error"
 VARIABLES = "X", "Y","Estimate1" 
 ZONE T = "Domain", I=       15508  DATAPACKING=POINT, ZONETYPE=ORDERED
  3.774538990000000E-002   3.28774540000000       6.713272639445695E-003
  7.516359325000001E-002   3.30032720000000       1.532193460129939E-002
  4.387269495000000E-002   3.27516360000000       8.093706422249738E-003
  8.129089830000000E-002   3.28774540000000       1.612348417083485E-002
  1.887269495000000E-002   3.26887270000000       6.463880289549861E-003
  2.783457120000000E-002   3.26625216500000       9.217988897991151E-004
  1.508634960000000E-002   3.26111062500000       1.393653675594114E-003
  2.404822585000000E-002   3.25849009000000       9.660249459317119E-004
  6.250000000000000E-003   3.25000000000000       8.784220979707238E-003
  6.290898300000000E-003   3.25629090000000       1.070847960649805E-002
  1.304552300000000E-002   3.25234349500000       3.593994858812751E-004
  1.308642130000000E-002   3.25863439500000       8.026057823781148E-004
  1.875000000000000E-002   3.25000000000000       2.202797847557976E-003
  2.129545130000000E-002   3.25481972500000       9.605087518672337E-004
  1.559097430000000E-002   3.25716322000000       5.395351452035691E-004
  2.775277455000000E-002   3.25367036500000       1.355279217973187E-003
  3.750000000000001E-002   3.25000000000000       4.405595695115952E-003
  5.629089830000000E-002   3.26258180000000       7.303064425939393E-003
  4.654367285000000E-002   3.26625216500000       1.018325487162391E-002
  7.500000000000001E-002   3.25000000000000       8.198616546706606E-003
  0.100000000000000        3.27516360000000       1.407218322286890E-002
  7.500000000000001E-002   3.35065440500000       9.651009537740734E-003
  0.100000000000000        3.32549080000000       1.544535280563086E-002
  7.500000000000001E-002   3.32549080500000       6.483657499332583E-003
  2.500000000000000E-002   3.35065441000000       9.651012606727962E-003
  5.016359325000000E-002   3.32549080500000       7.733698966807175E-003
  2.516359325000000E-002   3.32549080500000       2.167158335754728E-003
  0.000000000000000E+000   3.27516360500000       4.039684475470965E-003
  6.290898300000000E-003   3.28145450500000       1.003229526730979E-003
  1.508953620000000E-002   3.28022218000000       7.067191938098146E-003
  2.138043455000000E-002   3.28651308000000       1.120920167931370E-003
  8.798637900000000E-003   3.32425848500000       5.983837685446731E-003
  8.798637900000000E-003   3.29909488500000       3.627483047220015E-003
  0.000000000000000E+000   3.32549081000000       6.722826669610276E-003
  3.396223115000000E-002   3.29909488000000       4.043059627768211E-003
  3.750000000000001E-002   3.38944015000000       9.077781471385476E-004
  5.440464600000000E-002   3.38562290000000       3.985333047819544E-006
  2.961242250000000E-002   3.37388481500000       1.632929601845121E-004
  4.651706849999999E-002   3.37006756500000       1.380831171907303E-003
  1.250000000000000E-002   3.36358299000000       4.971657517285684E-003
  4.211242250000000E-002   3.36095623500000       4.002821856726058E-004
  5.440464600000000E-002   3.35976574000000       4.039394985185248E-003
  0.100000000000000        3.37651156500000       1.587106121454851E-002
  7.940464600000000E-002   3.38562290000000       5.267654652226029E-003
  7.500000000000001E-002   3.40236873000000       5.772953678428764E-003
  0.100000000000000        3.42822589000000       4.957459695533691E-004
  7.500000000000001E-002   3.45408305000000       1.143068459555050E-003
  5.000000000000000E-002   3.42822589000000       6.587090555258663E-004
  0.000000000000000E+000   3.42822590500000       3.785897711250404E-004
  2.500000000000000E-002   3.45408305500000       5.328610601851480E-004
  1.250000000000000E-002   3.40883303000000       3.424071641790632E-004
  3.750000000000001E-002   3.43469018000000       7.604623854242693E-004
  0.000000000000000E+000   3.37651158000000       6.908124118832151E-003
  2.500000000000000E-002   3.39590444000000       1.049241794017124E-003
  0.000000000000000E+000   3.50728368500000       7.789415518628855E-004
  5.000000000000000E-002   3.48228368500000       7.184088912347616E-004
  2.500000000000000E-002   3.53548431500000       1.123983696826550E-004
  0.100000000000000        3.50728367500000       1.019988096970833E-003
  7.500000000000001E-002   3.53548431000000       4.074132505867742E-004
  5.000000000000000E-002   3.56048430500000       3.667587358705751E-004
  0.000000000000000E+000   3.61526312500000       6.480943532319787E-004
  0.100000000000000        3.61526312000000       6.249745523061548E-004
  5.000000000000000E-002   3.67004194000000       1.576727077800887E-004
  0.000000000000000E+000   3.72648432500000       3.637762760870890E-004
  0.100000000000000        3.72648432000000       3.508624393566219E-004
  5.000000000000000E-002   3.78292670500000       3.360496914876048E-005
  0.000000000000000E+000   3.84123236500000       1.936301910572155E-004
  0.100000000000000        3.84123236000000       2.557676501752062E-004
  5.000000000000000E-002   3.89953802000000       4.685896843101790E-006
  0.000000000000000E+000   3.95971798000000       8.051454894493986E-005
  0.100000000000000        3.95971798000000       1.385374672729286E-004
  5.000000000000000E-002   4.01989794000000       1.535743969444164E-005
  0.000000000000000E+000   4.08189520000000       2.519659353378996E-005
  0.100000000000000        4.08189520000000       4.494001967225064E-005
  5.000000000000000E-002   4.14389246000000       2.840760854285039E-005
  0.000000000000000E+000   4.20777652500000       3.302552089871504E-005
  0.100000000000000        4.20777652000000       6.258555508177770E-005
  5.000000000000000E-002   4.27166058500000       2.232652187391703E-005
  0.000000000000000E+000   4.33749664000000       3.636733779875882E-005
  0.100000000000000        4.33749663000000       6.449786900897791E-005
  5.000000000000000E-002   4.40333268500000       2.019606101790577E-005
  0.000000000000000E+000   4.47118198500000       3.747943916247444E-005
  0.100000000000000        4.47118197500000       6.645662868208513E-005
  5.000000000000000E-002   4.53903127500000       1.736861740091361E-005
  0.000000000000000E+000   4.60895149500000       3.149266358684882E-005
  0.100000000000000        4.60895149000000       5.386577885072983E-005
  5.000000000000000E-002   4.67887171000000       1.749546239581207E-005
  0.000000000000000E+000   4.75091725000000       3.107218840277877E-005
  0.100000000000000        4.75091725000000       5.007391328080733E-005
  5.000000000000000E-002   4.82296279000000       1.434201658161854E-005
  0.000000000000000E+000   4.89737756000000       2.583021755728534E-005
  0.100000000000000        4.89737756000000       4.107889333617112E-005
  5.000000000000000E-002   4.97179233000000       1.291478160674295E-005
  0.000000000000000E+000   5.04851713000000       2.487353716208042E-005
  0.100000000000000        5.04851712500000       3.853612650290073E-005
  5.000000000000000E-002   5.12524192500000       9.595140212665001E-006
  0.000000000000000E+000   5.20428193500000       1.658667263996900E-005
  0.100000000000000        5.20428192500000       2.566185802192743E-005
  5.000000000000000E-002   5.28332193500000       7.709296683476072E-006
  0.000000000000000E+000   5.36471871000000       1.611076380729504E-005
  0.100000000000000        5.36471870500000       2.392845653443370E-005
  5.000000000000000E-002   5.44611548000000       7.632097131457121E-006
  0.000000000000000E+000   5.52990935000000       1.658521889835670E-005
  0.100000000000000        5.52990934500000       2.463313634360462E-005
  5.000000000000000E-002   5.61370321500000       5.642994590191563E-006
  0.000000000000000E+000   5.70040603000000       1.592182241198057E-005
  0.100000000000000        5.70040602500000       2.392666589211182E-005
  5.000000000000000E-002   5.78710884000000       5.057405431700181E-006
  0.000000000000000E+000   5.87631590000000       1.638169474801213E-005
  0.100000000000000        5.87631589500000       2.461774049901657E-005
  5.000000000000000E-002   5.96552295500000       3.944662165830791E-006
  0.000000000000000E+000   6.05737650500000       1.374328824841555E-005
  0.100000000000000        6.05737650000000       2.110621182579868E-005
  5.000000000000000E-002   6.14923005000000       3.608190370411540E-006
  0.000000000000000E+000   6.24414684000000       1.380117980370891E-005
  0.100000000000000        6.24414684000000       2.095875250096552E-005
  5.000000000000000E-002   6.33906363000000       2.609797037944391E-006
  0.000000000000000E+000   6.43662111500000       1.108910707604098E-005
  0.100000000000000        6.43662111500000       1.715144880386817E-005
  5.000000000000000E-002   6.53417860000000       2.408999083526128E-006
  0.000000000000000E+000   6.63506480500000       1.060294293743450E-005
  0.100000000000000        6.63506480000000       1.608759465519022E-005
  5.000000000000000E-002   6.73595100500000       1.696842705411628E-006
  0.000000000000000E+000   6.83970080000000       5.637132269338920E-006
  0.100000000000000        6.83970079000000       8.880065050796762E-006
  5.000000000000000E-002   6.94345058500000       1.271213350504938E-006
  0.000000000000000E+000   7.05053603500000       1.908139434079869E-006
  0.100000000000000        7.05053602500000       2.867472161972259E-006
  5.000000000000000E-002   7.15762147500000       1.225230411472360E-006
  0.000000000000000E+000   7.26799734500000       5.947683649763057E-006
  0.100000000000000        7.26799733500000       8.352643433542848E-006
  5.000000000000000E-002   7.37837320500000       1.308189024450503E-006
  0.000000000000000E+000   7.49205507000000       6.125829591429719E-006
  0.100000000000000        7.49205506500000       8.602823481430011E-006
  5.000000000000000E-002   7.60573693000000       9.154489883061201E-007
  0.000000000000000E+000   7.72293439000000       5.723763266283471E-006
  0.100000000000000        7.72293438500000       8.164877936743688E-006
  5.000000000000000E-002   7.84013184500000       8.581434768836064E-007
  0.000000000000000E+000   7.96106418500000       4.766171278788860E-006
  0.100000000000000        7.96106418000000       6.569483626327380E-006
  5.000000000000000E-002   8.08199652000000       6.482956088759120E-007
  0.000000000000000E+000   8.20661622000000       5.418621283747598E-006
  0.100000000000000        8.20661622000000       7.544248898547826E-006
  5.000000000000000E-002   8.33123592000000       7.345320925316186E-007
  0.000000000000000E+000   8.45967864000000       5.584851001362069E-006
  0.100000000000000        8.45967863500000       7.775687240181524E-006
  5.000000000000000E-002   8.58812135500000       4.936785333890179E-007
  0.000000000000000E+000   8.72051443000000       3.910153420111890E-006
  0.100000000000000        8.72051442000000       5.738195374210900E-006
  5.000000000000000E-002   8.85290749500000       3.124164173705493E-007
  0.000000000000000E+000   8.98937067500000       3.022287610270656E-006
  0.100000000000000        8.98937067000000       4.611576911933074E-006
  5.000000000000000E-002   9.12583385000000       3.095439235599381E-007
  0.000000000000000E+000   9.26647997000000       4.540236631093946E-006
  0.100000000000000        9.26647996500000       6.493984229730288E-006
  5.000000000000000E-002   9.40712608500000       3.938029938771305E-007
  0.000000000000000E+000   9.55214802500000       4.756134182232629E-006
  0.100000000000000        9.55214801500000       6.696026824878670E-006
  5.000000000000000E-002   9.69716995500000       3.991087136908067E-007
  0.000000000000000E+000   9.84673271500000       4.905054752195821E-006
  0.100000000000000        9.84673270500000       6.859302454142089E-006
  5.000000000000000E-002   9.99629546500000       2.863379574448626E-007
  0.000000000000000E+000   10.1503894850000       3.882094565180586E-006
  0.100000000000000        10.1503894800000       5.489405866964167E-006
  5.000000000000000E-002   10.3044835000000       2.486823746743852E-007
  0.000000000000000E+000   10.4633112500000       3.788459297128614E-006
  0.100000000000000        10.4633112500000       5.297883797365465E-006
  5.000000000000000E-002   10.6221390000000       1.481863731014127E-007
  0.000000000000000E+000   10.7859427500000       2.352543927443427E-006
  0.100000000000000        10.7859427500000       3.419522844564159E-006
  5.000000000000000E-002   10.9497465000000       1.644051166575472E-007
  0.000000000000000E+000   11.1185289500000       2.598106015533099E-006
  0.100000000000000        11.1185289500000       3.430192083624959E-006
  5.000000000000000E-002   11.2873114000000       2.171160704014037E-007
  0.000000000000000E+000   11.4613112000000       2.678417851391275E-006
  0.100000000000000        11.4613112000000       3.536225102268186E-006
  5.000000000000000E-002   11.6353110000000       1.584647808920196E-007
  0.000000000000000E+000   11.8147351500000       1.009084960901327E-006
  0.100000000000000        11.8147351500000       1.236000860408655E-006
  5.000000000000000E-002   11.9941593000000       1.199315808884715E-007
  0.000000000000000E+000   12.1790702500000       2.163008529131872E-007
  0.100000000000000        12.1790702500000       2.182041624660005E-007
  5.000000000000000E-002   12.3639812000000       9.627346246030487E-008
  0.000000000000000E+000   12.5545853000000       9.421046449527765E-007
  0.100000000000000        12.5545853000000       1.164726968788379E-006
  5.000000000000000E-002   12.7451894000000       7.611790080663885E-008
  0.000000000000000E+000   12.9416800000000       2.165021339523527E-006
  0.100000000000000        12.9416800000000       2.654887889192987E-006
  5.000000000000000E-002   13.1381706000000       8.524905578288377E-008
  0.000000000000000E+000   13.3407297500000       2.867653325084851E-006
  0.100000000000000        13.3407297500000       3.389615129051551E-006
  5.000000000000000E-002   13.5432889000000       1.009103092274819E-007
  0.000000000000000E+000   13.7520878500000       2.955990895704916E-006
  0.100000000000000        13.7520878500000       3.494031643843685E-006
  5.000000000000000E-002   13.9608868000000       5.712513920720406E-008
  0.000000000000000E+000   14.1760873000000       1.800441309743441E-006
  0.100000000000000        14.1760873000000       1.965657961106025E-006
  5.000000000000000E-002   14.3912878000000       4.154829139450499E-008
  0.000000000000000E+000   14.6131728000000       1.307189751526821E-006
  0.100000000000000        14.6131728000000       1.254367186254976E-006
  5.000000000000000E-002   14.8350578000000       3.560526144333137E-008
  0.000000000000000E+000   15.0637812000000       1.407687289721863E-006
  0.100000000000000        15.0637812000000       1.291545352159667E-006
  5.000000000000000E-002   15.2925046000000       3.253246239221518E-008
  0.000000000000000E+000   15.5282714500000       2.045328280126984E-006
  0.100000000000000        15.5282714500000       1.331317999429992E-006
  5.000000000000000E-002   15.7640383000000       5.571560392595776E-007
  0.000000000000000E+000   16.0070191500000       2.107911286231687E-006
  0.100000000000000        16.0070191500000       1.336091094500988E-006
  5.000000000000000E-002   16.2500000000000       5.019751655130283E-007
  -7.99048972000000       0.109224868500000       3.927257832393428E-004
  -8.10000000000000       0.250000000000000       5.629692075828890E-004
  -7.99048972000000       0.359224868500000       3.496313250793388E-005
  -7.88987939500000       0.618730721500000       4.071809976782351E-003
  -8.10000000000000       0.750000000000000       1.157820846016375E-003
  -7.88987939500000       0.868730721500000       2.822315664448012E-003
  -7.87703901000000        1.11368956000000       4.843438394958497E-003
  -8.10000000000000        1.25000000000000       1.157820846016375E-003
  -7.87703901000000        1.36368956000000       2.591089529570712E-003
  -7.88161634500000        1.61813197500000       3.555030041265860E-003
  -8.10000000000000        1.75000000000000       8.214248320966515E-004
  -7.88161634500000        1.86813197500000       2.194910555901829E-003
  -8.10000000000000        2.25000000000000       5.459210378830155E-004
  -7.88316135500000        2.36978733000000       1.927691845869831E-003
  -7.88316135500000        2.11978733000000       2.876067286778732E-003
  -7.88231993500000        2.87224420000000       1.916179170782695E-003
  -7.88231993500000        2.62224420000000       2.491424726055683E-003
  -8.10000000000000        2.75000000000000       3.511815989448027E-004
  -7.87988018000000        3.37785565500000       1.942535934574410E-003
  -7.87988018000000        3.12785565500000       2.166357376083883E-003
  -8.10000000000000        3.25000000000000       2.450873692139574E-004
  -7.88000662500000        3.88762659000000       1.413504456759246E-003
  -7.88000662500000        3.63762659000000       2.073063435195391E-003
  -8.10000000000000        3.75000000000000       6.188081084145076E-004
  -7.88837063000000        4.39724839500000       4.985424855052594E-004
  -7.88837063000000        4.14724839500000       2.240341132935155E-003
  -8.10000000000000        4.25000000000000       8.922292047386265E-004
  -8.10000000000000        4.75000000000000       8.922292047386265E-004
  -7.90448566500000        4.89920738000000       1.243072107564078E-004
  -7.90448566500000        4.64920738000000       1.414322511861532E-003
  -7.92489132000000        5.13595669000000       1.283201005583879E-003
  -8.10000000000000        5.25000000000000       1.147367013874097E-003
  -7.92489132000000        5.38595669000000       5.655668527375110E-004
  -7.94951601500000        5.58100297000000       9.154724002570366E-004
  -8.10000000000000        5.75000000000000       1.147367013874097E-003
  -7.94951601500000        5.83100297000000       7.823260472670818E-004
  -7.70274081500000        5.81885443000000       1.298977429887807E-003
  -7.85322480000000        5.98785146000000       2.783013678551110E-004
  -7.52269782500000        5.76876991500000       1.383449736277344E-003
  -7.36131881000000        5.94504263500000       2.083944332877459E-004
  -7.27756703500000        5.73810963000000       1.396125587197729E-003
  -6.87659269500000        5.85432717500000       2.382668246665905E-004
  -6.82374554000000        5.61598548000000       1.474669340622919E-003
  -7.06334086500000        5.67604065500000       1.472383378368196E-003
  -6.38766309000000        5.44143357500000       2.314091527444593E-003
  -6.61414067500000        5.53986095500000       1.296233456374732E-003
  -6.41051978500000        5.69584462000000       1.093238772747731E-003
  -5.98182430000000        5.45575945500000       2.965398247038550E-003
  -6.00090803500000        5.18419304000000       4.065915510362914E-003
  -6.20312593500000        5.32585082500000       1.133196596843675E-003
  -5.83540853000000        4.99743268000000       3.916514850253685E-003
  -5.60855901500000        5.13596474500000       5.024495996479272E-003
  -5.66436114500000        4.81929575500000       9.874019754440678E-003
  -5.46974909000000        4.40357120000000       6.369382387447175E-003
  -5.50934836500000        4.64431185500000       7.845639627981713E-003
  -5.39791235500000        4.71708716500000       7.878591914323922E-005
  -5.25054298500000        4.51878192500000       5.994116609248397E-003
  -5.29014226000000        4.75952258000000       2.456425714123696E-003
  -5.15148875500000        4.06175516000000       1.057909439542711E-002
  -5.20748669500000        4.30946136000000       1.127377596887871E-002
  -5.08677495000000        4.31351114000000       2.135274346864172E-003
  -4.94291727000000        4.11262996000000       8.980280108015265E-003
  -4.99891521000000        4.36033616000000       8.521057283600891E-003
  -4.74428575000000        3.73999829500000       1.068047867072451E-002
  -4.83891083500000        3.92766172000000       1.644121304298937E-002
  -4.76043244500000        3.97179155500000       9.906587120512140E-003
  -4.59855279000000        3.78612607000000       2.834093690060981E-003
  -4.69317787500000        3.97378949500000       9.338344698479342E-003
  -4.38476269500000        3.51973686500000       5.705589101102613E-003
  -4.48851537000000        3.64253324000000       1.362259522012820E-002
  -4.42754554500000        3.66532763500000       9.128856595712977E-003
  -4.24117651500000        3.51546866500000       3.989215911282700E-004
  -4.34492919000000        3.63826504000000       9.823557151625082E-003
  -4.15549159000000        3.44422224500000       2.339625554389670E-003
  -3.96153984000000        3.38469855000000       2.006524664614395E-004
  -3.95847127000000        3.34051472500000       1.409901652381726E-003
  -4.10647865500000        3.29786352500000       6.478737548279124E-003
  -3.91252690500000        3.23833983000000       4.738745204342453E-003
  -3.74916779500000        3.21684406000000       1.501867307915721E-004
  -3.57099568000000        3.21577931000000       5.162259056018965E-003
  -3.55564395500000        3.15163234000000       4.819396105048051E-003
  -3.72862720000000        3.07060728000000       5.655409509618839E-003
  -3.55045508500000        3.06954253000000       1.035515807918157E-002
  -3.35786757000000        3.00688337000000       9.469603606450733E-003
  -3.19448064000000        3.11190172500000       4.355509209726580E-003
  -3.17487637000000        2.96821750500000       1.197553803657333E-002
  -2.96195826000000        2.91155597500000       1.230146303606655E-002
  -2.84142069000000        3.05200589500000       2.699096211094567E-003
  -2.79188951000000        2.89032601000000       1.299322270885010E-002
  -2.59125594000000        2.89569930000000       3.678212919698859E-003
  -2.51320528500000        3.02052219500000       8.766569521374237E-003
  -2.43310928500000        2.88544556500000       1.128577361488450E-002
  -2.27308557500000        2.89141233000000       9.898714405182849E-004
  -2.20901446000000        3.00887088500000       8.278418209863869E-003
  -2.12704140500000        2.89001475500000       1.146030868613563E-002
  -1.89505203000000        2.85661684000000       7.867038734700380E-003
  -1.93214457500000        2.90882187000000       7.666254019807109E-003
  -1.89346757500000        2.96777224000000       3.269673911169311E-003
  -1.82708680500000        2.97576577500000       5.731973062027799E-003
  -1.86417935000000        3.02797080500000       9.989012055643804E-003
  -1.99676520500000        3.01372529000000       3.870402937784013E-003
  -1.99834966000000        2.90256989000000       3.491633347172794E-003
  -1.61632857500000        3.05758929000000       3.016274513140996E-003
  -1.58762239500000        2.97368079500000       1.206478993666046E-002
  -1.64832467000000        2.96646899500000       4.137011768317565E-004
  -1.73741471500000        3.04317091500000       9.085079703076343E-003
  -1.70870853500000        2.95926242000000       1.282878608167116E-002
  -1.47800714000000        2.95613725000000       2.174708267848897E-005
  -1.44432915500000        3.07804964500000       4.274752836661931E-003
  -1.36670999500000        2.96938580500000       1.184112373189771E-002
  -1.26220733500000        2.99547705500000       1.502878919546743E-003
  -1.23116363500000        3.10342571000000       1.854485002819637E-003
  -1.16033896000000        3.00760456500000       5.097678326943801E-003
  -1.06449978750000        3.02591573500000       1.376014871457768E-003
  -1.03571492450000        3.12670138500000       4.133420315685691E-004
 -0.970919452000000        3.03706390000000       2.152936711067155E-003
 -0.882152249500000        3.05380610500000       3.420988047387782E-004
 -0.856242249000000        3.14807472500000       4.157711568982441E-004
 -0.796259909500000        3.06403128000000       7.326169279735082E-004
 -0.714717080500000        3.07990128500000       2.622298999976027E-004
 -0.691834768500000        3.16765038000000       3.650891821643919E-004
 -0.636201940000000        3.08925176500000       2.601772292363819E-004
 -0.561549063500000        3.10452795000000       1.830693883290351E-005
 -0.540870404000000        3.18561286000000       3.293962956280666E-004
 -0.489099839500000        3.11313995000000       4.892108089646871E-004
 -0.421529860000000        3.12818414500000       1.576558819556455E-004
 -0.402394201000000        3.20208279000000       2.338706387405593E-004
 -0.355502881000000        3.13604207500000       4.574162661507839E-004
 -0.297583585000000        3.15092458000000       2.048298688207616E-004
 -0.275472102000000        3.21719763000000       7.580474915765350E-005
 -0.236688465000000        3.15818149000000       2.939397026817422E-004
 -0.143783469500000        3.15086210500000       8.484602551922885E-005
 -0.178267761500000        3.17062396500000       7.984715696167374E-005
 -0.180092690000000        3.20469268000000       6.212175262425525E-005
 -0.135329203000000        3.19588485500000       9.055948253028863E-005
 -0.152117780000000        3.20802198500000       9.897990886928042E-006
 -0.141838585000000        3.21897602000000       1.418942222168056E-004
 -0.113833535500000        3.22230699500000       8.992584876005088E-004
 -0.127840894500000        3.22064074000000       2.144777964254174E-005
 -0.116624422000000        3.23610884500000       1.027272681609184E-003
 -0.144629471500000        3.23277787000000       3.102965590744362E-005
 -0.186602072000000        3.22778384500000       2.461457513823362E-005
 -3.215473850000000E-002   3.20100956500000       6.757724736777311E-003
 -1.690144175000000E-002   3.17238364000000       6.321384981371615E-003
 -3.479950685000000E-002   3.18079027500000       5.742722683718198E-004
 -7.633493329999999E-002   3.22359565000000       6.128780931946218E-003
 -6.108163655000000E-002   3.19496972500000       5.789074579743579E-003
 -6.414727500000000E-003   3.24923535500000       9.048942777928861E-003
 -3.024087385000000E-003   3.23624224000000       8.481959739700323E-003
 -9.438814885000001E-003   3.23547759500000       2.541646417785556E-003
 -1.924418775000000E-002   3.24770610500000       4.232884131915966E-003
 -1.585354763500000E-002   3.23471299000000       2.655478421431870E-003
 -3.848842150000000E-002   3.24541259000000       8.465777768306088E-003
 -3.149166755000000E-002   3.23636454500000       4.301012870967393E-003
 -4.432116855000000E-002   3.23483563500000       3.279128239088107E-003
 -2.579054400000000E-002   3.20919526000000       1.769116280702485E-003
 -2.168629468500000E-002   3.22413603500000       7.470172544433804E-003
 -1.015242408500000E-002   3.20754370500000       6.623299847327533E-003
 -6.414750440000000E-002   3.24235545000000       1.199793546381750E-003
 -5.715075045000000E-002   3.23330740500000       9.873505465450193E-003
 -8.979707465000000E-002   3.23930116000000       1.094565007012959E-003
 -6.351494495000000E-002   3.22512171000000       2.891687993366538E-003
 -4.368860910000000E-002   3.21760189500000       3.509602705610322E-003
  5.706996800000000E-002   3.20736667000000       1.532385480676515E-003
  7.243793665000001E-002   3.20727886000000       4.472336385059497E-003
  7.119783545000000E-002   3.20182373000000       6.091841138764824E-003
  6.133310115000000E-002   3.18306827000000       6.852249626538167E-003
  7.670106979999999E-002   3.18298046000000       1.237325096147470E-002
  4.915337125000000E-002   3.21784454000000       3.255329794321206E-003
  4.791327005000000E-002   3.21238941000000       6.225903482621961E-004
  3.059431310000000E-002   3.22963592500000       5.303218228208060E-003
  3.407461530000000E-002   3.21707784500000       5.991581568202264E-003
  2.467225510000000E-002   3.22384649000000       4.445031699242723E-003
  1.059597645000000E-002   3.24320228500000       1.477458403687883E-002
  1.407627865000000E-002   3.23064420500000       9.865120122979366E-003
  4.749444640000000E-002   3.18775670500000       2.179348853621319E-003
  4.199121205000000E-002   3.20659997500000       4.665851776581617E-003
  9.328290205000001E-002   3.22586796000000       1.616613855062379E-002
  6.828290205000001E-002   3.22586796000000       6.524422835123157E-004
  5.092428925000000E-002   3.23859521000000       3.357555013449429E-003
  3.842428925000000E-002   3.23859521000000       3.372920048646776E-003
  2.309597645000000E-002   3.24320228500000       1.520104976374677E-003
  1.684597645000000E-002   3.24320228500000       1.955517499137238E-003
  3.249833665000000E-002   3.23643364000000       1.845255135468495E-003
  4.592262590000000E-002   3.22502885000000       2.901685146838555E-003
  5.507932385000000E-002   3.22000611000000       5.985842631838563E-005
  6.920719130000000E-002   3.21446317000000       4.627298210258848E-003
  0.189407685500000        3.28352188000000       6.018384561780215E-003
  0.179480912000000        3.28037958000000       7.968597454123616E-004
  0.166029324500000        3.28945079000000       3.009243911363786E-003
  0.175842380500000        3.29841882000000       7.531530748019194E-004
  0.162255752000000        3.29733974500000       8.714344190379126E-005
  0.162142034500000        3.30316547500000       9.839176116641141E-004
  0.124277703000000        3.30120680000000       1.528973420393357E-002
  0.152328978500000        3.29419744500000       3.252872926217094E-003
  0.128051275500000        3.29331784500000       1.391238948259562E-002
  0.167716977500000        3.30884356500000       4.943799252770083E-004
  0.154130349000000        3.30776449000000       1.776176904330890E-003
  0.155308559500000        3.32095984500000       1.739472033999314E-003