TITLE = "Visualization of the solution"
VARIABLES = "x","y","Density","Momentum_x","Momentum_y","Energy","Pressure","Temperature","Mach","Pressure_Coefficient"
ZONE NODES= 5383, ELEMENTS= 10374, DATAPACKING=POINT, ZONETYPE=FEQUADRILATERAL
0.000000e+00	3.250000e+00	9.504248e-01	2.465104e+00	4.575033e-01	3.398745e+00	3.671094e-02	3.862582e-02	1.134405e+01	-1.376127e+18	
0.000000e+00	3.350654e+00	7.429697e-01	1.352172e-03	-5.300373e-01	1.837607e+00	6.594164e-01	8.875414e-01	6.399976e-01	-4.865480e+17	
0.000000e+00	3.454083e+00	9.390792e-01	-9.922396e-03	-4.809585e-01	2.363172e+00	8.959823e-01	9.541073e-01	4.432362e-01	-1.485967e+17	
0.000000e+00	3.560484e+00	9.654285e-01	-7.154532e-03	-3.589786e-01	2.418917e+00	9.408600e-01	9.745517e-01	3.183964e-01	-8.448569e+16	
0.000000e+00	3.670042e+00	9.733265e-01	-3.670632e-03	-2.928594e-01	2.434563e+00	9.561990e-01	9.824031e-01	2.565818e-01	-6.257287e+16	
0.000000e+00	3.782927e+00	9.723660e-01	-2.604522e-03	-2.567873e-01	2.427531e+00	9.574483e-01	9.846583e-01	2.249362e-01	-6.078818e+16	
0.000000e+00	3.899538e+00	9.730549e-01	-1.810834e-03	-2.292053e-01	2.428236e+00	9.604960e-01	9.870933e-01	2.003816e-01	-5.643435e+16	
0.000000e+00	4.019898e+00	9.736226e-01	-2.299201e-03	-2.052602e-01	2.428160e+00	9.626084e-01	9.886875e-01	1.792040e-01	-5.341654e+16	
0.000000e+00	4.143892e+00	9.755264e-01	-1.617602e-03	-1.847791e-01	2.432309e+00	9.659231e-01	9.901557e-01	1.608847e-01	-4.868135e+16	
0.000000e+00	4.271661e+00	9.768675e-01	-1.608295e-03	-1.673997e-01	2.434471e+00	9.680506e-01	9.909743e-01	1.454936e-01	-4.564206e+16	
0.000000e+00	4.403333e+00	9.786880e-01	-1.027143e-03	-1.528156e-01	2.438616e+00	9.706739e-01	9.918113e-01	1.325119e-01	-4.189450e+16	
0.000000e+00	4.539031e+00	9.798643e-01	-1.032615e-03	-1.402280e-01	2.440763e+00	9.722915e-01	9.922715e-01	1.214231e-01	-3.958360e+16	
0.000000e+00	4.678872e+00	9.812521e-01	-6.672911e-04	-1.292970e-01	2.443994e+00	9.741903e-01	9.928033e-01	1.117681e-01	-3.687102e+16	
0.000000e+00	4.822963e+00	9.823696e-01	-4.186603e-04	-1.195770e-01	2.446486e+00	9.756833e-01	9.931937e-01	1.032273e-01	-3.473814e+16	
0.000000e+00	4.971792e+00	9.830973e-01	-4.825760e-04	-1.107955e-01	2.447831e+00	9.766350e-01	9.934266e-01	9.556481e-02	-3.337863e+16	
0.000000e+00	5.125242e+00	9.838465e-01	-4.061109e-04	-1.029241e-01	2.449492e+00	9.776431e-01	9.936948e-01	8.869568e-02	-3.193836e+16	
0.000000e+00	5.283322e+00	9.843670e-01	-4.548346e-04	-9.581754e-02	2.450468e+00	9.783218e-01	9.938589e-01	8.252139e-02	-3.096881e+16	
0.000000e+00	5.446115e+00	9.849807e-01	-3.055934e-04	-8.938248e-02	2.451961e+00	9.791623e-01	9.940928e-01	7.692185e-02	-2.976818e+16	
0.000000e+00	5.613703e+00	9.853686e-01	-3.356392e-04	-8.349649e-02	2.452723e+00	9.796743e-01	9.942211e-01	7.182366e-02	-2.903678e+16	
0.000000e+00	5.787109e+00	9.858215e-01	-2.276315e-04	-7.809182e-02	2.453834e+00	9.802964e-01	9.943954e-01	6.713755e-02	-2.814802e+16	
0.000000e+00	5.965523e+00	9.861034e-01	-2.545961e-04	-7.311756e-02	2.454391e+00	9.806723e-01	9.944924e-01	6.284014e-02	-2.761106e+16	
0.000000e+00	6.149230e+00	9.864432e-01	-1.716955e-04	-6.854970e-02	2.455226e+00	9.811375e-01	9.946214e-01	5.889005e-02	-2.694643e+16	
0.000000e+00	6.339064e+00	9.866458e-01	-1.944974e-04	-6.431778e-02	2.455624e+00	9.814109e-01	9.946942e-01	5.524118e-02	-2.655589e+16	
0.000000e+00	6.534179e+00	9.868981e-01	-1.308823e-04	-6.043031e-02	2.456247e+00	9.817588e-01	9.947925e-01	5.188636e-02	-2.605880e+16	
0.000000e+00	6.735951e+00	9.870482e-01	-1.496735e-04	-5.682446e-02	2.456540e+00	9.819615e-01	9.948465e-01	4.878164e-02	-2.576924e+16	
0.000000e+00	6.943451e+00	9.872385e-01	-1.005355e-04	-5.350386e-02	2.457011e+00	9.822247e-01	9.949213e-01	4.592037e-02	-2.539335e+16	
0.000000e+00	7.157621e+00	9.873493e-01	-1.166818e-04	-5.042021e-02	2.457225e+00	9.823752e-01	9.949621e-01	4.326809e-02	-2.517835e+16	
0.000000e+00	7.378373e+00	9.874943e-01	-7.959045e-05	-4.756154e-02	2.457580e+00	9.825739e-01	9.950173e-01	4.080774e-02	-2.489440e+16	
0.000000e+00	7.605737e+00	9.875792e-01	-9.476695e-05	-4.490050e-02	2.457734e+00	9.826854e-01	9.950447e-01	3.852076e-02	-2.473513e+16	
0.000000e+00	7.840132e+00	9.876940e-01	-6.176636e-05	-4.241678e-02	2.458026e+00	9.828460e-01	9.950916e-01	3.638482e-02	-2.450574e+16	
0.000000e+00	8.081997e+00	9.877744e-01	-5.815814e-05	-4.009362e-02	2.458199e+00	9.829542e-01	9.951202e-01	3.438874e-02	-2.435119e+16	
0.000000e+00	8.331236e+00	9.878331e-01	-6.784328e-05	-3.792564e-02	2.458307e+00	9.830318e-01	9.951396e-01	3.252700e-02	-2.424035e+16	
0.000000e+00	8.588121e+00	9.879132e-01	-4.540054e-05	-3.589933e-02	2.458510e+00	9.831431e-01	9.951715e-01	3.078612e-02	-2.408136e+16	
0.000000e+00	8.852907e+00	9.879566e-01	-5.442672e-05	-3.400227e-02	2.458589e+00	9.832014e-01	9.951869e-01	2.915777e-02	-2.399800e+16	
0.000000e+00	9.125834e+00	9.880192e-01	-3.697696e-05	-3.221984e-02	2.458739e+00	9.832853e-01	9.952087e-01	2.762722e-02	-2.387820e+16	
0.000000e+00	9.407126e+00	9.880563e-01	-4.229330e-05	-3.054369e-02	2.458810e+00	9.833350e-01	9.952217e-01	2.618885e-02	-2.380710e+16	
0.000000e+00	9.697170e+00	9.881061e-01	-2.921134e-05	-2.897313e-02	2.458934e+00	9.834039e-01	9.952412e-01	2.484070e-02	-2.370877e+16	
0.000000e+00	9.996295e+00	9.881370e-01	-3.252922e-05	-2.749648e-02	2.458996e+00	9.834455e-01	9.952521e-01	2.357380e-02	-2.364935e+16	
0.000000e+00	1.030448e+01	9.881753e-01	-2.523392e-05	-2.611337e-02	2.459089e+00	9.834977e-01	9.952665e-01	2.238697e-02	-2.357471e+16	
0.000000e+00	1.062214e+01	9.882015e-01	-2.657090e-05	-2.481421e-02	2.459140e+00	9.835316e-01	9.952743e-01	2.127256e-02	-2.352634e+16	
0.000000e+00	1.094975e+01	9.882338e-01	-1.870680e-05	-2.359246e-02	2.459217e+00	9.835742e-01	9.952849e-01	2.022442e-02	-2.346543e+16	
0.000000e+00	1.128731e+01	9.882533e-01	-2.075652e-05	-2.244638e-02	2.459253e+00	9.835990e-01	9.952904e-01	1.924152e-02	-2.342993e+16	
0.000000e+00	1.163531e+01	9.882831e-01	-8.801989e-06	-2.137310e-02	2.459329e+00	9.836391e-01	9.953010e-01	1.832082e-02	-2.337266e+16	
0.000000e+00	1.199416e+01	9.882998e-01	-9.125367e-06	-2.036965e-02	2.459363e+00	9.836614e-01	9.953067e-01	1.746033e-02	-2.334088e+16	
0.000000e+00	1.236398e+01	9.883163e-01	-7.454825e-06	-1.943229e-02	2.459400e+00	9.836835e-01	9.953125e-01	1.665652e-02	-2.330929e+16	
0.000000e+00	1.274519e+01	9.883278e-01	-9.982422e-06	-1.855873e-02	2.459421e+00	9.836989e-01	9.953164e-01	1.590753e-02	-2.328728e+16	
0.000000e+00	1.313817e+01	9.883411e-01	-7.890071e-06	-1.774686e-02	2.459449e+00	9.837160e-01	9.953203e-01	1.521140e-02	-2.326284e+16	
0.000000e+00	1.354329e+01	9.883560e-01	-2.096280e-06	-1.699634e-02	2.459486e+00	9.837359e-01	9.953255e-01	1.456785e-02	-2.323438e+16	
0.000000e+00	1.396089e+01	9.883644e-01	-1.758603e-06	-1.630654e-02	2.459502e+00	9.837469e-01	9.953282e-01	1.397647e-02	-2.321873e+16	
0.000000e+00	1.439129e+01	9.883708e-01	-1.674401e-06	-1.567548e-02	2.459513e+00	9.837556e-01	9.953305e-01	1.343549e-02	-2.320623e+16	
0.000000e+00	1.483506e+01	9.883762e-01	-1.750896e-06	-1.509944e-02	2.459523e+00	9.837632e-01	9.953327e-01	1.294167e-02	-2.319544e+16	
0.000000e+00	1.529250e+01	9.883808e-01	-7.646004e-07	-1.457482e-02	2.459533e+00	9.837701e-01	9.953351e-01	1.249195e-02	-2.318560e+16	
0.000000e+00	1.576404e+01	9.883882e-01	4.523474e-07	-1.409566e-02	2.459553e+00	9.837809e-01	9.953386e-01	1.208115e-02	-2.317014e+16	
0.000000e+00	1.625000e+01	9.883910e-01	-5.675464e-06	-1.366048e-02	2.459558e+00	9.837854e-01	9.953403e-01	1.170813e-02	-2.316377e+16	
1.000000e-01	3.250000e+00	2.086085e+00	3.855794e+00	1.174207e+00	6.815321e+00	1.168578e+00	5.601777e-01	2.181791e+00	2.408262e+17	
1.000000e-01	3.350654e+00	1.017048e+00	3.549143e-01	4.710289e-02	2.450211e+00	9.548777e-01	9.388719e-01	3.070481e-01	-6.446037e+16	
1.000000e-01	3.454083e+00	9.568387e-01	-5.525742e-02	-2.818995e-01	2.378380e+00	9.341034e-01	9.762392e-01	2.568033e-01	-9.413795e+16	
1.000000e-01	3.560484e+00	9.585792e-01	-4.085673e-02	-2.889783e-01	2.389453e+00	9.380095e-01	9.785415e-01	2.601245e-01	-8.855786e+16	
1.000000e-01	3.670042e+00	9.661135e-01	-2.867616e-02	-2.736047e-01	2.409523e+00	9.481418e-01	9.813979e-01	2.429300e-01	-7.408308e+16	
1.000000e-01	3.782927e+00	9.698725e-01	-1.906575e-02	-2.508942e-01	2.418794e+00	9.544620e-01	9.841109e-01	2.210244e-01	-6.505424e+16	
1.000000e-01	3.899538e+00	9.720419e-01	-1.578335e-02	-2.270627e-01	2.424401e+00	9.591011e-01	9.866870e-01	1.992296e-01	-5.842700e+16	
1.000000e-01	4.019898e+00	9.746446e-01	-1.293765e-02	-2.051002e-01	2.431188e+00	9.638087e-01	9.888822e-01	1.792032e-01	-5.170187e+16	
1.000000e-01	4.143892e+00	9.763434e-01	-1.079462e-02	-1.854477e-01	2.434425e+00	9.667014e-01	9.901244e-01	1.616011e-01	-4.756942e+16	
1.000000e-01	4.271661e+00	9.781369e-01	-8.448035e-03	-1.684864e-01	2.438255e+00	9.694832e-01	9.911529e-01	1.464118e-01	-4.359550e+16	
1.000000e-01	4.403333e+00	9.793996e-01	-6.930453e-03	-1.537608e-01	2.440505e+00	9.713641e-01	9.917955e-01	1.333679e-01	-4.090839e+16	
1.000000e-01	4.539031e+00	9.807619e-01	-5.556952e-03	-1.410060e-01	2.443441e+00	9.733155e-01	9.924075e-01	1.220680e-01	-3.812078e+16	
1.000000e-01	4.678872e+00	9.817232e-01	-4.751253e-03	-1.297164e-01	2.445217e+00	9.746545e-01	9.927996e-01	1.121507e-01	-3.620791e+16	
1.000000e-01	4.822963e+00	9.826506e-01	-4.034261e-03	-1.197328e-01	2.447164e+00	9.759444e-01	9.931754e-01	1.033911e-01	-3.436511e+16	
1.000000e-01	4.971792e+00	9.835312e-01	-3.331695e-03	-1.108080e-01	2.449134e+00	9.771544e-01	9.935165e-01	9.557134e-02	-3.263650e+16	
1.000000e-01	5.125242e+00	9.841436e-01	-2.871753e-03	-1.027424e-01	2.450311e+00	9.779774e-01	9.937345e-01	8.854453e-02	-3.146083e+16	
1.000000e-01	5.283322e+00	9.847494e-01	-2.414041e-03	-9.551136e-02	2.451658e+00	9.788094e-01	9.939680e-01	8.224656e-02	-3.027226e+16	
1.000000e-01	5.446115e+00	9.851807e-01	-2.138353e-03	-8.898156e-02	2.452491e+00	9.793879e-01	9.941201e-01	7.658188e-02	-2.944581e+16	
1.000000e-01	5.613703e+00	9.856390e-01	-1.821975e-03	-8.307931e-02	2.453544e+00	9.800164e-01	9.942955e-01	7.145912e-02	-2.854797e+16	
1.000000e-01	5.787109e+00	9.859617e-01	-1.631474e-03	-7.766104e-02	2.454195e+00	9.804542e-01	9.944141e-01	6.677153e-02	-2.792264e+16	
1.000000e-01	5.965523e+00	9.863047e-01	-1.399121e-03	-7.271489e-02	2.454997e+00	9.809264e-01	9.945470e-01	6.249078e-02	-2.724799e+16	
1.000000e-01	6.149230e+00	9.865424e-01	-1.259163e-03	-6.816613e-02	2.455478e+00	9.812490e-01	9.946344e-01	5.856407e-02	-2.678719e+16	
1.000000e-01	6.339064e+00	9.867967e-01	-1.081200e-03	-6.397569e-02	2.456079e+00	9.816016e-01	9.947354e-01	5.494542e-02	-2.628338e+16	
1.000000e-01	6.534179e+00	9.869712e-01	-9.744688e-04	-6.011903e-02	2.456431e+00	9.818399e-01	9.948010e-01	5.162172e-02	-2.594303e+16	
1.000000e-01	6.735951e+00	9.871619e-01	-8.377481e-04	-5.655537e-02	2.456884e+00	9.821053e-01	9.948777e-01	4.854945e-02	-2.556380e+16	
1.000000e-01	6.943451e+00	9.872919e-01	-7.578855e-04	-5.326609e-02	2.457146e+00	9.822834e-01	9.949270e-01	4.571824e-02	-2.530939e+16	
1.000000e-01	7.157621e+00	9.874365e-01	-6.553198e-04	-5.021942e-02	2.457491e+00	9.824854e-01	9.949858e-01	4.309501e-02	-2.502091e+16	
1.000000e-01	7.378373e+00	9.875349e-01	-5.976528e-04	-4.738713e-02	2.457689e+00	9.826206e-01	9.950237e-01	4.065947e-02	-2.482769e+16	
1.000000e-01	7.605737e+00	9.876474e-01	-5.208249e-04	-4.475267e-02	2.457955e+00	9.827763e-01	9.950679e-01	3.839335e-02	-2.460535e+16	
1.000000e-01	7.840132e+00	9.877251e-01	-4.776151e-04	-4.229173e-02	2.458104e+00	9.828796e-01	9.950943e-01	3.627863e-02	-2.445775e+16	
1.000000e-01	8.081997e+00	9.878028e-01	-4.295399e-04	-3.999044e-02	2.458274e+00	9.829858e-01	9.951236e-01	3.430114e-02	-2.430594e+16	
1.000000e-01	8.331236e+00	9.878809e-01	-3.768229e-04	-3.784055e-02	2.458461e+00	9.830943e-01	9.951547e-01	3.245376e-02	-2.415100e+16	
1.000000e-01	8.588121e+00	9.879337e-01	-3.471212e-04	-3.582701e-02	2.458563e+00	9.831653e-01	9.951733e-01	3.072485e-02	-2.404963e+16	
1.000000e-01	8.852907e+00	9.879954e-01	-3.042833e-04	-3.394138e-02	2.458709e+00	9.832505e-01	9.951974e-01	2.910539e-02	-2.392791e+16	
1.000000e-01	9.125834e+00	9.880375e-01	-2.799503e-04	-3.216778e-02	2.458792e+00	9.833073e-01	9.952125e-01	2.758304e-02	-2.384668e+16	
1.000000e-01	9.407126e+00	9.880856e-01	-2.471316e-04	-3.050135e-02	2.458903e+00	9.833729e-01	9.952304e-01	2.615248e-02	-2.375303e+16	
1.000000e-01	9.697170e+00	9.881186e-01	-2.292701e-04	-2.893673e-02	2.458967e+00	9.834173e-01	9.952421e-01	2.480993e-02	-2.368964e+16	
1.000000e-01	9.996295e+00	9.881582e-01	-2.026197e-04	-2.746816e-02	2.459061e+00	9.834718e-01	9.952575e-01	2.354958e-02	-2.361168e+16	
1.000000e-01	1.030448e+01	9.881867e-01	-1.855604e-04	-2.608977e-02	2.459120e+00	9.835101e-01	9.952675e-01	2.236703e-02	-2.355703e+16	
1.000000e-01	1.062214e+01	9.882216e-01	-1.602800e-04	-2.479553e-02	2.459205e+00	9.835577e-01	9.952805e-01	2.125648e-02	-2.348900e+16	
1.000000e-01	1.094975e+01	9.882436e-01	-1.461056e-04	-2.357783e-02	2.459247e+00	9.835865e-01	9.952874e-01	2.021203e-02	-2.344790e+16	
1.000000e-01	1.128731e+01	9.882697e-01	-1.257530e-04	-2.243508e-02	2.459308e+00	9.836215e-01	9.952966e-01	1.923175e-02	-2.339792e+16	
1.000000e-01	1.163531e+01	9.882840e-01	-1.168826e-04	-2.136447e-02	2.459331e+00	9.836400e-01	9.953009e-01	1.831368e-02	-2.337148e+16	
1.000000e-01	1.199416e+01	9.883021e-01	-1.024204e-04	-2.036318e-02	2.459370e+00	9.836643e-01	9.953073e-01	1.745496e-02	-2.333675e+16	
1.000000e-01	1.236398e+01	9.883171e-01	-9.010256e-05	-1.942798e-02	2.459401e+00	9.836841e-01	9.953122e-01	1.665299e-02	-2.330843e+16	
1.000000e-01	1.274519e+01	9.883328e-01	-7.573629e-05	-1.855553e-02	2.459436e+00	9.837048e-01	9.953175e-01	1.590483e-02	-2.327880e+16	
1.000000e-01	1.313817e+01	9.883476e-01	-6.161825e-05	-1.774422e-02	2.459471e+00	9.837249e-01	9.953228e-01	1.520911e-02	-2.325019e+16	
1.000000e-01	1.354329e+01	9.883563e-01	-5.233766e-05	-1.699453e-02	2.459487e+00	9.837362e-01	9.953255e-01	1.456636e-02	-2.323403e+16	
1.000000e-01	1.396089e+01	9.883646e-01	-4.154615e-05	-1.630536e-02	2.459502e+00	9.837472e-01	9.953282e-01	1.397550e-02	-2.321835e+16	
1.000000e-01	1.439129e+01	9.883711e-01	-3.155619e-05	-1.567441e-02	2.459514e+00	9.837560e-01	9.953306e-01	1.343459e-02	-2.320567e+16	
1.000000e-01	1.483506e+01	9.883766e-01	-2.264517e-05	-1.509777e-02	2.459525e+00	9.837638e-01	9.953329e-01	1.294024e-02	-2.319459e+16	
1.000000e-01	1.529250e+01	9.883798e-01	-1.489818e-05	-1.456963e-02	2.459530e+00	9.837689e-01	9.953348e-01	1.248752e-02	-2.318731e+16	
1.000000e-01	1.576404e+01	9.883871e-01	-8.625276e-06	-1.408777e-02	2.459549e+00	9.837795e-01	9.953383e-01	1.207441e-02	-2.317207e+16	
1.000000e-01	1.625000e+01	9.883969e-01	-1.675087e-06	-1.366847e-02	2.459578e+00	9.837935e-01	9.953426e-01	1.171489e-02	-2.315220e+16	
6.436002e+01	6.260783e-01	1.588142e+00	2.370392e+00	1.561270e-03	4.977599e+00	1.283451e+00	8.081460e-01	1.403207e+00	4.049299e+17	
-7.880266e+00	2.180911e-01	6.918677e+00	2.061975e+00	-9.211923e-03	1.951389e+01	7.682647e+00	1.110421e+00	2.390324e-01	9.546638e+18	
-7.799066e+00	5.661741e+00	7.087821e+00	8.885321e-01	-6.771610e-02	1.992591e+01	7.947957e+00	1.121354e+00	1.003420e-01	9.925653e+18	
6.230890e+00	7.956664e+00	9.881595e-01	-1.128326e-02	-2.844785e-02	2.459331e+00	9.835430e-01	9.953282e-01	2.623621e-02	-2.350998e+16	
5.867703e+00	8.277250e+00	9.882143e-01	-1.091076e-02	-2.843292e-02	2.459401e+00	9.835728e-01	9.953031e-01	2.610709e-02	-2.346747e+16	
5.857615e+00	7.686488e+00	9.881002e-01	-1.209738e-02	-3.024491e-02	2.459203e+00	9.834663e-01	9.953103e-01	2.792764e-02	-2.361964e+16	
5.790562e+00	7.980795e+00	9.881485e-01	-1.162800e-02	-2.959091e-02	2.459249e+00	9.834951e-01	9.952908e-01	2.725701e-02	-2.357837e+16	
5.852205e+00	8.668246e+00	9.882615e-01	-9.954394e-03	-2.712392e-02	2.459475e+00	9.836211e-01	9.953044e-01	2.476718e-02	-2.339848e+16	
5.458597e+00	8.782238e+00	9.882667e-01	-9.462992e-03	-2.731019e-02	2.459467e+00	9.836176e-01	9.952957e-01	2.477602e-02	-2.340345e+16	
6.328986e+00	8.437392e+00	9.882541e-01	-1.045737e-02	-2.694085e-02	2.459514e+00	9.836365e-01	9.953274e-01	2.477255e-02	-2.337648e+16	
5.488225e+00	8.476003e+00	9.882329e-01	-1.030813e-02	-2.844142e-02	2.459404e+00	9.835764e-01	9.952881e-01	2.593305e-02	-2.346223e+16	
6.880342e+00	8.112740e+00	9.882415e-01	-1.035001e-02	-2.643030e-02	2.459604e+00	9.836785e-01	9.953828e-01	2.433100e-02	-2.331636e+16	
6.218987e+00	7.574113e+00	9.880781e-01	-1.148461e-02	-2.928713e-02	2.459252e+00	9.835006e-01	9.953673e-01	2.697056e-02	-2.357060e+16	
5.485040e+00	8.151690e+00	9.881827e-01	-1.122398e-02	-2.970858e-02	2.459301e+00	9.835164e-01	9.952779e-01	2.722583e-02	-2.354801e+16	
5.471198e+00	7.499519e+00	9.880494e-01	-1.287175e-02	-3.206099e-02	2.459085e+00	9.833923e-01	9.952866e-01	2.962174e-02	-2.372526e+16	
5.479459e+00	7.838489e+00	9.881307e-01	-1.211527e-02	-3.090307e-02	2.459211e+00	9.834614e-01	9.952746e-01	2.845755e-02	-2.362660e+16	
5.362133e+00	7.105044e+00	9.878965e-01	-1.330768e-02	-3.344269e-02	2.458840e+00	9.832739e-01	9.953207e-01	3.086477e-02	-2.389450e+16	
5.264102e+00	9.929352e+00	9.883328e-01	-6.606013e-03	-2.358489e-02	2.459557e+00	9.837014e-01	9.953140e-01	2.099362e-02	-2.328364e+16	
5.150450e+00	9.690720e+00	9.883120e-01	-7.041056e-03	-2.442737e-02	2.459509e+00	9.836726e-01	9.953057e-01	2.179073e-02	-2.332483e+16	
5.670793e+00	9.118538e+00	9.883007e-01	-8.745467e-03	-2.581907e-02	2.459535e+00	9.836637e-01	9.953081e-01	2.336652e-02	-2.333757e+16	
5.146046e+00	9.001121e+00	9.882679e-01	-8.666247e-03	-2.686444e-02	2.459437e+00	9.836135e-01	9.952903e-01	2.419701e-02	-2.340935e+16	
5.185985e+00	9.378903e+00	9.883012e-01	-7.779092e-03	-2.544534e-02	2.459504e+00	9.836584e-01	9.953023e-01	2.280760e-02	-2.334516e+16	
6.272691e+00	8.925833e+00	9.883099e-01	-9.444357e-03	-2.559806e-02	2.459599e+00	9.836891e-01	9.953246e-01	2.338731e-02	-2.330128e+16	
5.112671e+00	8.654272e+00	9.882329e-01	-9.557453e-03	-2.827924e-02	2.459366e+00	9.835661e-01	9.952776e-01	2.558928e-02	-2.347706e+16	
6.839556e+00	8.693269e+00	9.883212e-01	-9.804228e-03	-2.524326e-02	2.459694e+00	9.837290e-01	9.953535e-01	2.321151e-02	-2.324424e+16	
6.637705e+00	7.637454e+00	9.881336e-01	-1.059593e-02	-2.786538e-02	2.459492e+00	9.836169e-01	9.954291e-01	2.555676e-02	-2.340436e+16	
5.921427e+00	7.276891e+00	9.879947e-01	-1.188737e-02	-3.080958e-02	2.459177e+00	9.834500e-01	9.954001e-01	2.831414e-02	-2.364281e+16	
5.128773e+00	8.014263e+00	9.881484e-01	-1.152905e-02	-3.099446e-02	2.459201e+00	9.834590e-01	9.952544e-01	2.835118e-02	-2.363000e+16	
5.126943e+00	8.328317e+00	9.881940e-01	-1.051729e-02	-2.963055e-02	2.459289e+00	9.835156e-01	9.952657e-01	2.695447e-02	-2.354911e+16	
5.325720e+00	6.711327e+00	9.876399e-01	-1.242937e-02	-3.384512e-02	2.458542e+00	9.831534e-01	9.954574e-01	3.092392e-02	-2.406656e+16	
4.991099e+00	6.891693e+00	9.878248e-01	-1.443536e-02	-3.547987e-02	2.458643e+00	9.831603e-01	9.952780e-01	3.284949e-02	-2.405671e+16	
5.113902e+00	7.702685e+00	9.880951e-01	-1.257225e-02	-3.238545e-02	2.459110e+00	9.833997e-01	9.952481e-01	2.978540e-02	-2.371466e+16	
4.961724e+00	7.148122e+00	9.879288e-01	-1.423705e-02	-3.500531e-02	2.458787e+00	9.832258e-01	9.952396e-01	3.240564e-02	-2.396312e+16	
5.063334e+00	7.392409e+00	9.880234e-01	-1.352434e-02	-3.379347e-02	2.458994e+00	9.833293e-01	9.952490e-01	3.121012e-02	-2.381530e+16	
7.521441e+00	7.948036e+00	9.882548e-01	-9.194317e-03	-2.519164e-02	2.459814e+00	9.837802e-01	9.954722e-01	2.298600e-02	-2.317120e+16	
7.439836e+00	8.462990e+00	9.883049e-01	-9.571330e-03	-2.456059e-02	2.459717e+00	9.837463e-01	9.953874e-01	2.259380e-02	-2.321960e+16	
4.959185e+00	6.586780e+00	9.876761e-01	-1.406872e-02	-3.578829e-02	2.458537e+00	9.831152e-01	9.953822e-01	3.298155e-02	-2.412110e+16	
8.082228e+00	8.212166e+00	9.883075e-01	-8.606336e-03	-2.371859e-02	2.459884e+00	9.838249e-01	9.954644e-01	2.162610e-02	-2.310727e+16	
4.907842e+00	6.316560e+00	9.874240e-01	-1.227818e-02	-3.559861e-02	2.458354e+00	9.830544e-01	9.955747e-01	3.230247e-02	-2.420802e+16	
9.088317e+00	8.572050e+00	9.883429e-01	-7.710742e-03	-2.162852e-02	2.459860e+00	9.838373e-01	9.954412e-01	1.968014e-02	-2.308960e+16	
4.902852e+00	9.913806e+00	9.883155e-01	-6.401782e-03	-2.392822e-02	2.459503e+00	9.836772e-01	9.953069e-01	2.123168e-02	-2.331833e+16	
5.589407e+00	9.654538e+00	9.883296e-01	-7.418233e-03	-2.414626e-02	2.459569e+00	9.836986e-01	9.953143e-01	2.165154e-02	-2.328768e+16	
4.798748e+00	9.586643e+00	9.882907e-01	-7.004437e-03	-2.508547e-02	2.459450e+00	9.836427e-01	9.952970e-01	2.232542e-02	-2.336751e+16	
6.170764e+00	9.427206e+00	9.883431e-01	-8.248787e-03	-2.422482e-02	2.459640e+00	9.837235e-01	9.953259e-01	2.193451e-02	-2.325218e+16	
4.684037e+00	8.849612e+00	9.882293e-01	-8.644041e-03	-2.798496e-02	2.459326e+00	9.835569e-01	9.952720e-01	2.510846e-02	-2.349011e+16	
4.745927e+00	9.230968e+00	9.882640e-01	-7.761728e-03	-2.641276e-02	2.459397e+00	9.836055e-01	9.952862e-01	2.359874e-02	-2.342074e+16	
6.749415e+00	9.219722e+00	9.883481e-01	-8.840855e-03	-2.404535e-02	2.459685e+00	9.837413e-01	9.953388e-01	2.195861e-02	-2.322676e+16	
6.411192e+00	7.323608e+00	9.879682e-01	-1.047693e-02	-2.890160e-02	2.459201e+00	9.834889e-01	9.954661e-01	2.635794e-02	-2.358726e+16	
4.750841e+00	8.494295e+00	9.881925e-01	-9.690403e-03	-2.943661e-02	2.459252e+00	9.835066e-01	9.952581e-01	2.656786e-02	-2.356198e+16	
4.772316e+00	8.183480e+00	9.881549e-01	-1.068842e-02	-3.083602e-02	2.459179e+00	9.834560e-01	9.952448e-01	2.797962e-02	-2.363430e+16	
5.773979e+00	6.821086e+00	9.877120e-01	-1.049214e-02	-3.156605e-02	2.458992e+00	9.833726e-01	9.956067e-01	2.852579e-02	-2.375339e+16	
4.745501e+00	7.589630e+00	9.880646e-01	-1.289218e-02	-3.379508e-02	2.459018e+00	9.833425e-01	9.952208e-01	3.101324e-02	-2.379648e+16	
4.769835e+00	7.883530e+00	9.881130e-01	-1.176034e-02	-3.229034e-02	2.459101e+00	9.834014e-01	9.952317e-01	2.946368e-02	-2.371225e+16	
7.128169e+00	7.666113e+00	9.881766e-01	-9.457262e-03	-2.645535e-02	2.459734e+00	9.837339e-01	9.955042e-01	2.408285e-02	-2.323722e+16	
7.336906e+00	9.012507e+00	9.883559e-01	-9.087369e-03	-2.363737e-02	2.459750e+00	9.837702e-01	9.953602e-01	2.170526e-02	-2.318546e+16	
4.648396e+00	6.760772e+00	9.878131e-01	-1.573601e-02	-3.731938e-02	2.458567e+00	9.830945e-01	9.952232e-01	3.473524e-02	-2.415070e+16	
5.242429e+00	6.376541e+00	9.873764e-01	-9.873800e-03	-3.349424e-02	2.458545e+00	9.831710e-01	9.957409e-01	2.995335e-02	-2.404137e+16	
4.668584e+00	7.041778e+00	9.879205e-01	-1.501686e-02	-3.645467e-02	2.458752e+00	9.831860e-01	9.952076e-01	3.381002e-02	-2.402004e+16	
4.701376e+00	7.310889e+00	9.879948e-01	-1.399219e-02	-3.524062e-02	2.458879e+00	9.832608e-01	9.952085e-01	3.251291e-02	-2.391320e+16	
7.944255e+00	8.813470e+00	9.883643e-01	-8.906361e-03	-2.302104e-02	2.459828e+00	9.838078e-01	9.953899e-01	2.115606e-02	-2.313166e+16	
7.915424e+00	7.806847e+00	9.881707e-01	-7.998075e-03	-2.450506e-02	2.459734e+00	9.837592e-01	9.955357e-01	2.209594e-02	-2.320111e+16	
4.623155e+00	6.170563e+00	9.872948e-01	-1.304337e-02	-3.714690e-02	2.458022e+00	9.828950e-01	9.955435e-01	3.377753e-02	-2.443578e+16	
4.621645e+00	6.470770e+00	9.877264e-01	-1.567905e-02	-3.776625e-02	2.458624e+00	9.831110e-01	9.953272e-01	3.507118e-02	-2.412713e+16	
8.558915e+00	8.661173e+00	9.883760e-01	-8.341369e-03	-2.227620e-02	2.459925e+00	9.838555e-01	9.954263e-01	2.038654e-02	-2.306362e+16	
8.783840e+00	8.167942e+00	9.883315e-01	-7.454719e-03	-2.262409e-02	2.460059e+00	9.839088e-01	9.955250e-01	2.041552e-02	-2.298748e+16	
9.414143e+00	8.228933e+00	9.882846e-01	-6.763445e-03	-2.163229e-02	2.459897e+00	9.838548e-01	9.955177e-01	1.942604e-02	-2.306461e+16	
4.601504e+00	5.862886e+00	9.866850e-01	-4.670376e-03	-3.509063e-02	2.458069e+00	9.829734e-01	9.962383e-01	3.037945e-02	-2.432365e+16	
9.962047e+00	8.322122e+00	9.882952e-01	-6.360434e-03	-2.059724e-02	2.459878e+00	9.838572e-01	9.955094e-01	1.847624e-02	-2.306112e+16	
4.680499e+00	1.082684e+01	9.883470e-01	-4.697598e-03	-2.155091e-02	2.459552e+00	9.837222e-01	9.953207e-01	1.890561e-02	-2.325402e+16	
4.684320e+00	1.051962e+01	9.883338e-01	-5.177713e-03	-2.234318e-02	2.459525e+00	9.837036e-01	9.953151e-01	1.965874e-02	-2.328063e+16	
5.083187e+00	1.027515e+01	9.883403e-01	-5.822420e-03	-2.272560e-02	2.459558e+00	9.837119e-01	9.953170e-01	2.010803e-02	-2.326869e+16	
5.585516e+00	1.012175e+01	9.883503e-01	-6.392151e-03	-2.277076e-02	2.459598e+00	9.837259e-01	9.953211e-01	2.027178e-02	-2.324870e+16	
4.494232e+00	9.838530e+00	9.882903e-01	-6.254302e-03	-2.451091e-02	2.459431e+00	9.836429e-01	9.952975e-01	2.168360e-02	-2.336726e+16	
4.618633e+00	1.017278e+01	9.883156e-01	-5.726656e-03	-2.337058e-02	2.459488e+00	9.836780e-01	9.953076e-01	2.062495e-02	-2.331710e+16	
6.085187e+00	9.924110e+00	9.883626e-01	-7.059147e-03	-2.289193e-02	2.459653e+00	9.837450e-01	9.953280e-01	2.053261e-02	-2.322140e+16	
4.345002e+00	9.101565e+00	9.882355e-01	-7.689492e-03	-2.731669e-02	2.459320e+00	9.835651e-01	9.952740e-01	2.432714e-02	-2.347836e+16	
4.302961e+00	9.477527e+00	9.882603e-01	-6.820862e-03	-2.592514e-02	2.459366e+00	9.836009e-01	9.952852e-01	2.297977e-02	-2.342729e+16	
6.639639e+00	9.729591e+00	9.883737e-01	-7.687238e-03	-2.285458e-02	2.459708e+00	9.837655e-01	9.953376e-01	2.066696e-02	-2.319216e+16	
4.377008e+00	8.619780e+00	9.881868e-01	-8.939486e-03	-2.933529e-02	2.459217e+00	9.834964e-01	9.952535e-01	2.629077e-02	-2.357663e+16	
4.295722e+00	8.852550e+00	9.882059e-01	-8.239024e-03	-2.840194e-02	2.459250e+00	9.835229e-01	9.952612e-01	2.535203e-02	-2.353865e+16	
4.414012e+00	8.334681e+00	9.881526e-01	-9.817379e-03	-3.062372e-02	2.459145e+00	9.834487e-01	9.952397e-01	2.757078e-02	-2.364476e+16	
6.322000e+00	6.937955e+00	9.878026e-01	-8.425283e-03	-2.917714e-02	2.459449e+00	9.835931e-01	9.957384e-01	2.603917e-02	-2.343849e+16	
6.918565e+00	7.204299e+00	9.879679e-01	-7.907415e-03	-2.723489e-02	2.459705e+00	9.837190e-01	9.956994e-01	2.431246e-02	-2.325852e+16	
7.215107e+00	9.540568e+00	9.883793e-01	-8.139819e-03	-2.263105e-02	2.459746e+00	9.837812e-01	9.953478e-01	2.061327e-02	-2.316974e+16	
4.423919e+00	8.047760e+00	9.881149e-01	-1.079869e-02	-3.204479e-02	2.459069e+00	9.833963e-01	9.952246e-01	2.899227e-02	-2.371955e+16	
5.602121e+00	6.495805e+00	9.872018e-01	-8.276521e-03	-3.174118e-02	2.458144e+00	9.830396e-01	9.957838e-01	2.814196e-02	-2.422919e+16	
4.390303e+00	7.483678e+00	9.880192e-01	-1.313775e-02	-3.515153e-02	2.458881e+00	9.832675e-01	9.951906e-01	3.217765e-02	-2.390362e+16	
4.414513e+00	7.763427e+00	9.880715e-01	-1.190518e-02	-3.356920e-02	2.458984e+00	9.833367e-01	9.952080e-01	3.053917e-02	-2.380475e+16	
7.642266e+00	7.443003e+00	9.880783e-01	-7.014698e-03	-2.530462e-02	2.459904e+00	9.838221e-01	9.956924e-01	2.250912e-02	-2.311134e+16	
7.806636e+00	9.357963e+00	9.883895e-01	-8.323450e-03	-2.222233e-02	2.459802e+00	9.838068e-01	9.953635e-01	2.033829e-02	-2.313312e+16	
4.360121e+00	7.208112e+00	9.879541e-01	-1.451040e-02	-3.670265e-02	2.458751e+00	9.831849e-01	9.951726e-01	3.384410e-02	-2.402159e+16	
4.331503e+00	6.930352e+00	9.878956e-01	-1.594132e-02	-3.812822e-02	2.458672e+00	9.831230e-01	9.951690e-01	3.544101e-02	-2.410998e+16	
5.078074e+00	5.988684e+00	9.865437e-01	-1.836934e-03	-3.165878e-02	2.457682e+00	9.828690e-01	9.962751e-01	2.721786e-02	-2.447286e+16	
4.302964e+00	6.644980e+00	9.877917e-01	-1.710259e-02	-3.926383e-02	2.458471e+00	9.830171e-01	9.951664e-01	3.673160e-02	-2.426133e+16	
8.409211e+00	9.189321e+00	9.883955e-01	-8.198584e-03	-2.167436e-02	2.459849e+00	9.838308e-01	9.953817e-01	1.986073e-02	-2.309882e+16	
8.371904e+00	7.641267e+00	9.881858e-01	-6.146760e-03	-2.377565e-02	2.460136e+00	9.839325e-01	9.956959e-01	2.104824e-02	-2.295351e+16	
9.009152e+00	9.029138e+00	9.883909e-01	-7.834011e-03	-2.108869e-02	2.459867e+00	9.838442e-01	9.953999e-01	1.928095e-02	-2.307970e+16	
9.144115e+00	7.709748e+00	9.881459e-01	-4.922218e-03	-2.266893e-02	2.460021e+00	9.838994e-01	9.957026e-01	1.988314e-02	-2.300080e+16	
4.275432e+00	6.350333e+00	9.877109e-01	-1.726111e-02	-3.999479e-02	2.458547e+00	9.830345e-01	9.952654e-01	3.736207e-02	-2.423642e+16	
4.244054e+00	6.044431e+00	9.873916e-01	-1.473034e-02	-3.993238e-02	2.458412e+00	9.829978e-01	9.955501e-01	3.651266e-02	-2.428890e+16	
4.599999e+00	5.544269e+00	9.852864e-01	2.026761e-02	-2.991253e-02	2.459569e+00	9.835628e-01	9.982506e-01	3.102045e-02	-2.348175e+16	
4.203831e+00	5.719512e+00	9.865866e-01	-4.221186e-03	-3.831290e-02	2.458656e+00	9.831613e-01	9.965281e-01	3.307662e-02	-2.405533e+16	
9.635797e+00	8.790948e+00	9.883748e-01	-7.250221e-03	-2.052251e-02	2.459886e+00	9.838584e-01	9.954305e-01	1.865428e-02	-2.305947e+16	
9.825991e+00	7.828741e+00	9.881121e-01	-4.653842e-03	-2.152147e-02	2.459798e+00	9.838212e-01	9.956576e-01	1.887428e-02	-2.311250e+16	
1.034765e+01	8.711369e+00	9.883946e-01	-6.378051e-03	-1.952288e-02	2.459963e+00	9.839000e-01	9.954526e-01	1.760192e-02	-2.300000e+16	
4.153840e+00	5.336508e+00	9.833668e-01	3.513393e-02	-2.972100e-02	2.457402e+00	9.825299e-01	9.991490e-01	3.956769e-02	-2.495724e+16	
1.054226e+01	8.068340e+00	9.882806e-01	-4.855452e-03	-1.980685e-02	2.460046e+00	9.839342e-01	9.956021e-01	1.747835e-02	-2.295119e+16	
1.101794e+01	8.632090e+00	9.884139e-01	-5.265451e-03	-1.877776e-02	2.459996e+00	9.839215e-01	9.954550e-01	1.671346e-02	-2.296923e+16	
3.855055e+00	5.054424e+00	9.791753e-01	8.617292e-02	-1.721788e-02	2.454335e+00	9.801566e-01	1.001002e+00	7.581049e-02	-2.834767e+16	
1.132981e+01	8.090406e+00	9.883572e-01	-3.574563e-03	-1.872498e-02	2.460141e+00	9.839829e-01	9.955741e-01	1.633726e-02	-2.288163e+16	
1.167050e+01	8.616495e+00	9.883667e-01	-3.979197e-03	-1.854510e-02	2.459770e+00	9.838352e-01	9.954151e-01	1.625620e-02	-2.309258e+16	
3.785454e+00	4.733214e+00	9.789831e-01	3.544318e-01	4.155371e-02	2.515706e+00	9.802659e-01	1.001310e+00	3.078744e-01	-2.819154e+16	
1.590850e+01	8.319416e+00	9.877473e-01	-1.071616e-02	-4.853190e-02	2.458511e+00	9.829041e-01	9.950967e-01	4.263065e-02	-2.442271e+16	
1.539982e+01	8.296656e+00	9.877871e-01	-7.308197e-03	-4.491481e-02	2.458415e+00	9.829466e-01	9.950997e-01	3.903042e-02	-2.436196e+16	