TITLE = "Visualization of the solution"
VARIABLES = "x","y","Density","Momentum_x","Momentum_y","Energy","Pressure","Temperature","Pressure_Coefficient","Mach"
ZONE NODES= 5411, ELEMENTS= 10427, DATAPACKING=POINT, ZONETYPE=FEQUADRILATERAL
0.000000e+00	3.250000e+00	9.559773e-01	2.492355e+00	3.924876e-01	3.517540e+00	7.521024e-02	7.867367e-02	-1.321128e+18	7.952487e+00	
0.000000e+00	3.350654e+00	7.460409e-01	7.174386e-02	-4.943078e-01	1.857897e+00	6.762760e-01	9.064865e-01	-4.624629e+17	5.943154e-01	
0.000000e+00	3.454083e+00	9.422213e-01	-1.106688e-02	-4.607779e-01	2.369218e+00	9.025940e-01	9.579427e-01	-1.391514e+17	4.224061e-01	
0.000000e+00	3.560484e+00	9.644399e-01	-6.959999e-03	-3.438194e-01	2.415976e+00	9.418664e-01	9.765942e-01	-8.304798e+16	3.049461e-01	
0.000000e+00	3.670042e+00	9.714609e-01	-3.618457e-03	-2.831486e-01	2.430486e+00	9.556859e-01	9.837615e-01	-6.330593e+16	2.483794e-01	
0.000000e+00	3.782927e+00	9.723330e-01	-1.568779e-03	-2.493380e-01	2.428882e+00	9.587644e-01	9.860454e-01	-5.890796e+16	2.182577e-01	
0.000000e+00	3.899538e+00	9.726260e-01	-2.171603e-03	-2.223327e-01	2.426563e+00	9.604596e-01	9.874912e-01	-5.648624e+16	1.944229e-01	
0.000000e+00	4.019898e+00	9.745586e-01	-1.656441e-03	-1.990793e-01	2.430604e+00	9.641074e-01	9.892759e-01	-5.127512e+16	1.735843e-01	
0.000000e+00	4.143892e+00	9.759823e-01	-1.865313e-03	-1.786762e-01	2.432795e+00	9.665753e-01	9.903615e-01	-4.774957e+16	1.554846e-01	
0.000000e+00	4.271661e+00	9.780914e-01	-1.205239e-03	-1.614008e-01	2.437673e+00	9.697422e-01	9.914638e-01	-4.322537e+16	1.400670e-01	
0.000000e+00	4.403333e+00	9.794534e-01	-1.221434e-03	-1.465728e-01	2.440213e+00	9.716981e-01	9.920820e-01	-4.043130e+16	1.269834e-01	
0.000000e+00	4.539031e+00	9.810738e-01	-7.862702e-04	-1.338807e-01	2.444037e+00	9.739605e-01	9.927495e-01	-3.719925e+16	1.157551e-01	
0.000000e+00	4.678872e+00	9.820835e-01	-8.206122e-04	-1.227889e-01	2.445978e+00	9.753208e-01	9.931139e-01	-3.525602e+16	1.060369e-01	
0.000000e+00	4.822963e+00	9.832296e-01	-5.298463e-04	-1.131390e-01	2.448718e+00	9.768835e-01	9.935457e-01	-3.302359e+16	9.756725e-02	
0.000000e+00	4.971792e+00	9.839365e-01	-5.613257e-04	-1.045964e-01	2.450097e+00	9.778150e-01	9.937786e-01	-3.169288e+16	9.012535e-02	
0.000000e+00	5.125242e+00	9.847328e-01	-3.680004e-04	-9.706294e-02	2.452002e+00	9.788872e-01	9.940638e-01	-3.016116e+16	8.355396e-02	
0.000000e+00	5.283322e+00	9.852170e-01	-3.998153e-04	-9.031978e-02	2.452945e+00	9.795220e-01	9.942195e-01	-2.925434e+16	7.770519e-02	
0.000000e+00	5.446115e+00	9.857669e-01	-2.683247e-04	-8.427689e-02	2.454256e+00	9.802614e-01	9.944150e-01	-2.819794e+16	7.245838e-02	
0.000000e+00	5.613703e+00	9.860946e-01	-2.987314e-04	-7.878975e-02	2.454886e+00	9.806952e-01	9.945244e-01	-2.757831e+16	6.771463e-02	
0.000000e+00	5.787109e+00	9.864783e-01	-2.040320e-04	-7.377851e-02	2.455800e+00	9.812164e-01	9.946659e-01	-2.683379e+16	6.337842e-02	
0.000000e+00	5.965523e+00	9.866999e-01	-2.315098e-04	-6.918577e-02	2.456201e+00	9.815101e-01	9.947403e-01	-2.641409e+16	5.941762e-02	
0.000000e+00	6.149230e+00	9.869718e-01	-1.599641e-04	-6.497684e-02	2.456843e+00	9.818816e-01	9.948426e-01	-2.588348e+16	5.578455e-02	
0.000000e+00	6.339064e+00	9.871215e-01	-1.830551e-04	-6.108478e-02	2.457092e+00	9.820808e-01	9.948936e-01	-2.559883e+16	5.243389e-02	
0.000000e+00	6.534179e+00	9.873152e-01	-1.274515e-04	-5.751226e-02	2.457542e+00	9.823468e-01	9.949678e-01	-2.521881e+16	4.935568e-02	
0.000000e+00	6.735951e+00	9.874163e-01	-1.464241e-04	-5.419865e-02	2.457691e+00	9.824813e-01	9.950022e-01	-2.502669e+16	4.650651e-02	
0.000000e+00	6.943451e+00	9.875553e-01	-1.031139e-04	-5.114569e-02	2.458005e+00	9.826722e-01	9.950554e-01	-2.475401e+16	4.387942e-02	
0.000000e+00	7.157621e+00	9.876237e-01	-1.189133e-04	-4.830871e-02	2.458088e+00	9.827625e-01	9.950779e-01	-2.462493e+16	4.144219e-02	
0.000000e+00	7.378373e+00	9.877236e-01	-8.507674e-05	-4.567548e-02	2.458307e+00	9.829002e-01	9.951167e-01	-2.442833e+16	3.917847e-02	
0.000000e+00	7.605737e+00	9.877688e-01	-9.900919e-05	-4.322374e-02	2.458347e+00	9.829605e-01	9.951322e-01	-2.434211e+16	3.707352e-02	
0.000000e+00	7.840132e+00	9.878507e-01	-6.243050e-05	-4.093940e-02	2.458531e+00	9.830729e-01	9.951635e-01	-2.418158e+16	3.511069e-02	
0.000000e+00	8.081997e+00	9.878868e-01	-7.082692e-05	-3.879244e-02	2.458552e+00	9.831161e-01	9.951708e-01	-2.411987e+16	3.326808e-02	
0.000000e+00	8.331236e+00	9.879401e-01	-5.294822e-05	-3.678222e-02	2.458646e+00	9.831847e-01	9.951865e-01	-2.402187e+16	3.154217e-02	
0.000000e+00	8.588121e+00	9.879797e-01	-4.128121e-05	-3.489226e-02	2.458701e+00	9.832338e-01	9.951964e-01	-2.395170e+16	2.992010e-02	
0.000000e+00	8.852907e+00	9.879994e-01	-4.779326e-05	-3.311684e-02	2.458699e+00	9.832576e-01	9.952006e-01	-2.391771e+16	2.839706e-02	
0.000000e+00	9.125834e+00	9.880108e-01	-5.747862e-05	-3.144888e-02	2.458681e+00	9.832721e-01	9.952038e-01	-2.389701e+16	2.696648e-02	
0.000000e+00	9.407126e+00	9.880420e-01	-4.379554e-05	-2.988073e-02	2.458740e+00	9.833154e-01	9.952162e-01	-2.383514e+16	2.562085e-02	
0.000000e+00	9.697170e+00	9.880516e-01	-5.064716e-05	-2.840655e-02	2.458728e+00	9.833279e-01	9.952192e-01	-2.381730e+16	2.435658e-02	
0.000000e+00	9.996295e+00	9.880773e-01	-3.739435e-05	-2.701794e-02	2.458776e+00	9.833627e-01	9.952286e-01	-2.376755e+16	2.316522e-02	
0.000000e+00	1.030448e+01	9.880878e-01	-3.864052e-05	-2.571117e-02	2.458773e+00	9.833755e-01	9.952308e-01	-2.374934e+16	2.204453e-02	
0.000000e+00	1.062214e+01	9.881099e-01	-2.550559e-05	-2.448360e-02	2.458813e+00	9.834039e-01	9.952373e-01	-2.370873e+16	2.099148e-02	
0.000000e+00	1.094975e+01	9.881188e-01	-2.589449e-05	-2.332725e-02	2.458811e+00	9.834141e-01	9.952387e-01	-2.369419e+16	1.999986e-02	
0.000000e+00	1.128731e+01	9.881279e-01	-2.555616e-05	-2.224152e-02	2.458813e+00	9.834249e-01	9.952404e-01	-2.367874e+16	1.906880e-02	
0.000000e+00	1.163531e+01	9.881381e-01	-2.258887e-05	-2.122285e-02	2.458822e+00	9.834378e-01	9.952433e-01	-2.366029e+16	1.819524e-02	
0.000000e+00	1.199416e+01	9.881457e-01	-2.243170e-05	-2.026690e-02	2.458826e+00	9.834471e-01	9.952450e-01	-2.364703e+16	1.737551e-02	
0.000000e+00	1.236398e+01	9.881570e-01	-1.757535e-05	-1.937199e-02	2.458844e+00	9.834616e-01	9.952483e-01	-2.362636e+16	1.660805e-02	
0.000000e+00	1.274519e+01	9.881635e-01	-1.721084e-05	-1.853636e-02	2.458847e+00	9.834694e-01	9.952497e-01	-2.361515e+16	1.589153e-02	
0.000000e+00	1.313817e+01	9.881743e-01	-1.114326e-05	-1.775740e-02	2.458869e+00	9.834838e-01	9.952533e-01	-2.359463e+16	1.522352e-02	
0.000000e+00	1.354329e+01	9.881806e-01	-9.920638e-06	-1.703431e-02	2.458876e+00	9.834915e-01	9.952548e-01	-2.358355e+16	1.460350e-02	
0.000000e+00	1.396089e+01	9.881861e-01	-8.464953e-06	-1.636735e-02	2.458882e+00	9.834986e-01	9.952564e-01	-2.357342e+16	1.403163e-02	
0.000000e+00	1.439129e+01	9.881910e-01	-6.970382e-06	-1.575701e-02	2.458888e+00	9.835050e-01	9.952580e-01	-2.356435e+16	1.350831e-02	
0.000000e+00	1.483506e+01	9.881951e-01	-6.123159e-06	-1.520283e-02	2.458893e+00	9.835106e-01	9.952595e-01	-2.355629e+16	1.303315e-02	
0.000000e+00	1.529250e+01	9.881975e-01	-5.853534e-06	-1.470366e-02	2.458895e+00	9.835144e-01	9.952610e-01	-2.355087e+16	1.260519e-02	
0.000000e+00	1.576404e+01	9.882025e-01	-4.083381e-06	-1.424988e-02	2.458907e+00	9.835218e-01	9.952633e-01	-2.354034e+16	1.221609e-02	
0.000000e+00	1.625000e+01	9.882067e-01	3.420108e-06	-1.383156e-02	2.458917e+00	9.835282e-01	9.952657e-01	-2.353112e+16	1.185741e-02	
1.000000e-01	3.250000e+00	2.138088e+00	3.949538e+00	1.156590e+00	6.976614e+00	1.206375e+00	5.642307e-01	2.948212e+17	2.165681e+00	
1.000000e-01	3.350654e+00	1.031755e+00	3.034184e-01	3.616697e-03	2.420849e+00	9.504914e-01	9.212376e-01	-7.072662e+16	2.589682e-01	
1.000000e-01	3.454083e+00	9.589835e-01	-5.465372e-02	-2.773662e-01	2.378432e+00	9.347052e-01	9.746833e-01	-9.327830e+16	2.523587e-01	
1.000000e-01	3.560484e+00	9.579605e-01	-3.712580e-02	-2.818907e-01	2.389637e+00	9.389773e-01	9.801838e-01	-8.717529e+16	2.533668e-01	
1.000000e-01	3.670042e+00	9.650885e-01	-2.561067e-02	-2.668033e-01	2.409524e+00	9.489218e-01	9.832485e-01	-7.296892e+16	2.367119e-01	
1.000000e-01	3.782927e+00	9.689702e-01	-1.827749e-02	-2.443950e-01	2.417296e+00	9.545212e-01	9.850883e-01	-6.496976e+16	2.153731e-01	
1.000000e-01	3.899538e+00	9.725372e-01	-1.492033e-02	-2.208744e-01	2.426175e+00	9.603917e-01	9.875116e-01	-5.658328e+16	1.935944e-01	
1.000000e-01	4.019898e+00	9.750172e-01	-1.286229e-02	-1.987211e-01	2.431533e+00	9.644788e-01	9.891915e-01	-5.074463e+16	1.735543e-01	
1.000000e-01	4.143892e+00	9.773545e-01	-1.035834e-02	-1.791046e-01	2.436877e+00	9.681647e-01	9.905972e-01	-4.547905e+16	1.558716e-01	
1.000000e-01	4.271661e+00	9.788849e-01	-8.590298e-03	-1.619161e-01	2.439750e+00	9.705285e-01	9.914634e-01	-4.210210e+16	1.405939e-01	
1.000000e-01	4.403333e+00	9.805143e-01	-6.857227e-03	-1.471049e-01	2.443380e+00	9.729285e-01	9.922634e-01	-3.867358e+16	1.274286e-01	
1.000000e-01	4.539031e+00	9.816487e-01	-5.760728e-03	-1.341379e-01	2.445555e+00	9.745493e-01	9.927679e-01	-3.635812e+16	1.160133e-01	
1.000000e-01	4.678872e+00	9.828197e-01	-4.646726e-03	-1.228490e-01	2.448189e+00	9.762000e-01	9.932646e-01	-3.399997e+16	1.060747e-01	
1.000000e-01	4.822963e+00	9.836220e-01	-3.923200e-03	-1.129216e-01	2.449744e+00	9.773016e-01	9.935744e-01	-3.242635e+16	9.739719e-02	
1.000000e-01	4.971792e+00	9.844404e-01	-3.178197e-03	-1.042196e-01	2.451597e+00	9.784302e-01	9.938948e-01	-3.081403e+16	8.978991e-02	
1.000000e-01	5.125242e+00	9.849965e-01	-2.715470e-03	-9.651930e-02	2.452682e+00	9.791798e-01	9.940947e-01	-2.974317e+16	8.309472e-02	
1.000000e-01	5.283322e+00	9.855632e-01	-2.241319e-03	-8.970829e-02	2.453972e+00	9.799547e-01	9.943094e-01	-2.863612e+16	7.717184e-02	
1.000000e-01	5.446115e+00	9.859443e-01	-1.959919e-03	-8.360574e-02	2.454715e+00	9.804672e-01	9.944448e-01	-2.790400e+16	7.188672e-02	
1.000000e-01	5.613703e+00	9.863380e-01	-1.654453e-03	-7.812544e-02	2.455606e+00	9.810042e-01	9.945923e-01	-2.713686e+16	6.713940e-02	
1.000000e-01	5.787109e+00	9.865996e-01	-1.475809e-03	-7.312310e-02	2.456100e+00	9.813558e-01	9.946850e-01	-2.663454e+16	6.281962e-02	
1.000000e-01	5.965523e+00	9.868760e-01	-1.265205e-03	-6.857629e-02	2.456722e+00	9.817353e-01	9.947910e-01	-2.609237e+16	5.889187e-02	
1.000000e-01	6.149230e+00	9.870562e-01	-1.141142e-03	-6.440688e-02	2.457048e+00	9.819783e-01	9.948556e-01	-2.574522e+16	5.529865e-02	
1.000000e-01	6.339064e+00	9.872514e-01	-9.840182e-04	-6.057348e-02	2.457478e+00	9.822479e-01	9.949318e-01	-2.536018e+16	5.199378e-02	
1.000000e-01	6.534179e+00	9.873751e-01	-8.909705e-04	-5.704914e-02	2.457686e+00	9.824151e-01	9.949765e-01	-2.512135e+16	4.896090e-02	
1.000000e-01	6.735951e+00	9.875136e-01	-7.709876e-04	-5.379260e-02	2.457982e+00	9.826067e-01	9.950311e-01	-2.484759e+16	4.615744e-02	
1.000000e-01	6.943451e+00	9.875986e-01	-7.018781e-04	-5.078529e-02	2.458109e+00	9.827212e-01	9.950614e-01	-2.468394e+16	4.357225e-02	
1.000000e-01	7.157621e+00	9.876978e-01	-6.118852e-04	-4.799722e-02	2.458312e+00	9.828584e-01	9.951003e-01	-2.448800e+16	4.117464e-02	
1.000000e-01	7.378373e+00	9.877561e-01	-5.617978e-04	-4.540284e-02	2.458386e+00	9.829368e-01	9.951210e-01	-2.437594e+16	3.894616e-02	
1.000000e-01	7.605737e+00	9.878282e-01	-4.931964e-04	-4.298886e-02	2.458529e+00	9.830375e-01	9.951502e-01	-2.423221e+16	3.687183e-02	
1.000000e-01	7.840132e+00	9.878705e-01	-4.554066e-04	-4.073264e-02	2.458575e+00	9.830942e-01	9.951651e-01	-2.415110e+16	3.493478e-02	
1.000000e-01	8.081997e+00	9.879297e-01	-3.980408e-04	-3.861843e-02	2.458689e+00	9.831735e-01	9.951856e-01	-2.403790e+16	3.311887e-02	
1.000000e-01	8.331236e+00	9.879596e-01	-3.698981e-04	-3.663020e-02	2.458701e+00	9.832086e-01	9.951911e-01	-2.398774e+16	3.141268e-02	
1.000000e-01	8.588121e+00	9.879931e-01	-3.346610e-04	-3.476464e-02	2.458739e+00	9.832511e-01	9.952003e-01	-2.392704e+16	2.981156e-02	
1.000000e-01	8.852907e+00	9.880119e-01	-3.111377e-04	-3.301007e-02	2.458737e+00	9.832742e-01	9.952048e-01	-2.389406e+16	2.830631e-02	
1.000000e-01	9.125834e+00	9.880397e-01	-2.777567e-04	-3.135984e-02	2.458775e+00	9.833111e-01	9.952142e-01	-2.384133e+16	2.689021e-02	
1.000000e-01	9.407126e+00	9.880532e-01	-2.594435e-04	-2.980930e-02	2.458772e+00	9.833288e-01	9.952185e-01	-2.381598e+16	2.556022e-02	
1.000000e-01	9.697170e+00	9.880774e-01	-2.282762e-04	-2.834903e-02	2.458812e+00	9.833621e-01	9.952278e-01	-2.376844e+16	2.430726e-02	
1.000000e-01	9.996295e+00	9.880897e-01	-2.100633e-04	-2.697200e-02	2.458813e+00	9.833780e-01	9.952315e-01	-2.374568e+16	2.312618e-02	
1.000000e-01	1.030448e+01	9.881097e-01	-1.838172e-04	-2.567699e-02	2.458846e+00	9.834048e-01	9.952385e-01	-2.370741e+16	2.201519e-02	
1.000000e-01	1.062214e+01	9.881159e-01	-1.722692e-04	-2.445840e-02	2.458831e+00	9.834114e-01	9.952389e-01	-2.369805e+16	2.097023e-02	
1.000000e-01	1.094975e+01	9.881277e-01	-1.538725e-04	-2.331184e-02	2.458839e+00	9.834256e-01	9.952415e-01	-2.367765e+16	1.998686e-02	
1.000000e-01	1.128731e+01	9.881330e-01	-1.422573e-04	-2.223382e-02	2.458829e+00	9.834316e-01	9.952422e-01	-2.366910e+16	1.906247e-02	
1.000000e-01	1.163531e+01	9.881425e-01	-1.271373e-04	-2.122144e-02	2.458837e+00	9.834435e-01	9.952447e-01	-2.365211e+16	1.819425e-02	
1.000000e-01	1.199416e+01	9.881532e-01	-1.106524e-04	-2.027173e-02	2.458851e+00	9.834572e-01	9.952478e-01	-2.363254e+16	1.737975e-02	
1.000000e-01	1.236398e+01	9.881601e-01	-9.864239e-05	-1.938127e-02	2.458854e+00	9.834654e-01	9.952490e-01	-2.362090e+16	1.661616e-02	
1.000000e-01	1.274519e+01	9.881688e-01	-8.463815e-05	-1.854963e-02	2.458866e+00	9.834766e-01	9.952516e-01	-2.360486e+16	1.590297e-02	
1.000000e-01	1.313817e+01	9.881742e-01	-7.402348e-05	-1.777423e-02	2.458868e+00	9.834832e-01	9.952529e-01	-2.359543e+16	1.523808e-02	
1.000000e-01	1.354329e+01	9.881810e-01	-6.119733e-05	-1.705413e-02	2.458877e+00	9.834921e-01	9.952550e-01	-2.358272e+16	1.462058e-02	
1.000000e-01	1.396089e+01	9.881869e-01	-4.856935e-05	-1.638995e-02	2.458885e+00	9.834997e-01	9.952568e-01	-2.357187e+16	1.405105e-02	
1.000000e-01	1.439129e+01	9.881917e-01	-3.614608e-05	-1.578254e-02	2.458891e+00	9.835061e-01	9.952584e-01	-2.356269e+16	1.353022e-02	
1.000000e-01	1.483506e+01	9.881962e-01	-2.401142e-05	-1.523169e-02	2.458898e+00	9.835123e-01	9.952601e-01	-2.355385e+16	1.305790e-02	
1.000000e-01	1.529250e+01	9.882007e-01	-1.213554e-05	-1.473409e-02	2.458907e+00	9.835187e-01	9.952620e-01	-2.354473e+16	1.263122e-02	
1.000000e-01	1.576404e+01	9.882073e-01	-1.663013e-06	-1.427564e-02	2.458924e+00	9.835285e-01	9.952654e-01	-2.353071e+16	1.223810e-02	
1.000000e-01	1.625000e+01	9.882048e-01	3.457824e-06	-1.385074e-02	2.458911e+00	9.835257e-01	9.952651e-01	-2.353470e+16	1.187388e-02	
6.436002e+01	6.260783e-01	1.586404e+00	2.366853e+00	2.182790e-03	4.969661e+00	1.281613e+00	8.078733e-01	4.023047e+17	1.402885e+00	
-7.880265e+00	2.180909e-01	6.918954e+00	2.061330e+00	-9.264757e-03	1.951472e+01	7.683063e+00	1.110437e+00	9.547233e+18	2.389464e-01	
-7.799066e+00	5.661741e+00	7.087590e+00	8.893173e-01	-6.764128e-02	1.992504e+01	7.947569e+00	1.121336e+00	9.925099e+18	1.004336e-01	
6.230890e+00	7.956664e+00	9.881376e-01	-1.057179e-02	-2.935890e-02	2.459158e+00	9.834659e-01	9.952722e-01	-2.362009e+16	2.675235e-02	
5.867703e+00	8.277250e+00	9.881960e-01	-1.015400e-02	-2.899695e-02	2.459260e+00	9.835129e-01	9.952610e-01	-2.355299e+16	2.633865e-02	
5.857615e+00	7.686488e+00	9.881548e-01	-1.118214e-02	-3.095441e-02	2.459288e+00	9.834961e-01	9.952855e-01	-2.357694e+16	2.821595e-02	
5.790562e+00	7.980795e+00	9.881705e-01	-1.078463e-02	-3.017272e-02	2.459238e+00	9.834875e-01	9.952609e-01	-2.358928e+16	2.746994e-02	
5.852205e+00	8.668246e+00	9.882266e-01	-9.253754e-03	-2.758796e-02	2.459286e+00	9.835432e-01	9.952608e-01	-2.350970e+16	2.494496e-02	
5.458597e+00	8.782238e+00	9.882502e-01	-8.703157e-03	-2.756094e-02	2.459347e+00	9.835699e-01	9.952641e-01	-2.347151e+16	2.477617e-02	
6.328986e+00	8.437392e+00	9.881931e-01	-9.864814e-03	-2.772294e-02	2.459226e+00	9.835153e-01	9.952663e-01	-2.354962e+16	2.522623e-02	
5.488225e+00	8.476003e+00	9.882324e-01	-9.505454e-03	-2.874179e-02	2.459333e+00	9.835478e-01	9.952596e-01	-2.350320e+16	2.595145e-02	
6.880342e+00	8.112740e+00	9.881429e-01	-9.974313e-03	-2.767973e-02	2.459161e+00	9.834892e-01	9.952905e-01	-2.358682e+16	2.522398e-02	
6.218987e+00	7.574113e+00	9.881048e-01	-1.069027e-02	-3.036682e-02	2.459222e+00	9.834791e-01	9.953186e-01	-2.360127e+16	2.760076e-02	
5.485040e+00	8.151690e+00	9.882139e-01	-1.035513e-02	-3.004976e-02	2.459333e+00	9.835286e-01	9.952588e-01	-2.353058e+16	2.724735e-02	
5.471198e+00	7.499519e+00	9.881663e-01	-1.179099e-02	-3.249304e-02	2.459376e+00	9.835087e-01	9.952866e-01	-2.355905e+16	2.963358e-02	
5.479459e+00	7.838489e+00	9.881979e-01	-1.115371e-02	-3.128610e-02	2.459353e+00	9.835180e-01	9.952642e-01	-2.354567e+16	2.847443e-02	
5.362133e+00	7.105044e+00	9.881005e-01	-1.210808e-02	-3.386502e-02	2.459380e+00	9.834903e-01	9.953343e-01	-2.358527e+16	3.083361e-02	
5.264102e+00	9.929352e+00	9.882795e-01	-6.027747e-03	-2.373846e-02	2.459349e+00	9.836183e-01	9.952835e-01	-2.340246e+16	2.099440e-02	
5.150450e+00	9.690720e+00	9.882674e-01	-6.413863e-03	-2.454927e-02	2.459326e+00	9.836002e-01	9.952774e-01	-2.342823e+16	2.175035e-02	
5.670793e+00	9.118538e+00	9.882679e-01	-8.059412e-03	-2.611904e-02	2.459367e+00	9.835955e-01	9.952721e-01	-2.343506e+16	2.343132e-02	
5.146046e+00	9.001121e+00	9.882563e-01	-7.912143e-03	-2.697256e-02	2.459347e+00	9.835788e-01	9.952670e-01	-2.345879e+16	2.409592e-02	
5.185985e+00	9.378903e+00	9.882670e-01	-7.093539e-03	-2.556760e-02	2.459348e+00	9.835966e-01	9.952741e-01	-2.343348e+16	2.274484e-02	
6.272691e+00	8.925833e+00	9.882493e-01	-8.879349e-03	-2.618061e-02	2.459321e+00	9.835739e-01	9.952689e-01	-2.346592e+16	2.369855e-02	
5.112671e+00	8.654272e+00	9.882442e-01	-8.736985e-03	-2.837793e-02	2.459345e+00	9.835595e-01	9.952596e-01	-2.348640e+16	2.545362e-02	
6.839556e+00	8.693269e+00	9.882227e-01	-9.442677e-03	-2.613221e-02	2.459265e+00	9.835498e-01	9.952714e-01	-2.350023e+16	2.381963e-02	
6.637705e+00	7.637454e+00	9.880869e-01	-1.003630e-02	-2.927731e-02	2.459193e+00	9.834834e-01	9.953410e-01	-2.359519e+16	2.653459e-02	
5.921427e+00	7.276891e+00	9.881204e-01	-1.090412e-02	-3.173917e-02	2.459473e+00	9.835611e-01	9.953858e-01	-2.348416e+16	2.877084e-02	
5.128773e+00	8.014263e+00	9.882198e-01	-1.056123e-02	-3.113309e-02	2.459366e+00	9.835278e-01	9.952521e-01	-2.353167e+16	2.818320e-02	
5.126943e+00	8.328317e+00	9.882323e-01	-9.630970e-03	-2.974806e-02	2.459352e+00	9.835427e-01	9.952546e-01	-2.351036e+16	2.680484e-02	
5.325721e+00	6.711327e+00	9.879608e-01	-1.126358e-02	-3.436763e-02	2.459362e+00	9.834800e-01	9.954645e-01	-2.360003e+16	3.100899e-02	
4.991099e+00	6.891693e+00	9.881027e-01	-1.309654e-02	-3.561139e-02	2.459425e+00	9.834784e-01	9.953200e-01	-2.360225e+16	3.253022e-02	
5.113902e+00	7.702685e+00	9.882063e-01	-1.149704e-02	-3.253448e-02	2.459399e+00	9.835187e-01	9.952564e-01	-2.354476e+16	2.958131e-02	
4.961724e+00	7.148122e+00	9.881420e-01	-1.294676e-02	-3.507152e-02	2.459389e+00	9.834728e-01	9.952748e-01	-2.361027e+16	3.205098e-02	
5.063334e+00	7.392409e+00	9.881831e-01	-1.233017e-02	-3.392325e-02	2.459433e+00	9.835093e-01	9.952704e-01	-2.355809e+16	3.094356e-02	
7.521441e+00	7.948036e+00	9.880855e-01	-9.286680e-03	-2.688111e-02	2.459101e+00	9.834765e-01	9.953354e-01	-2.360501e+16	2.438300e-02	
7.439836e+00	8.462990e+00	9.881752e-01	-9.541485e-03	-2.577078e-02	2.459155e+00	9.835091e-01	9.952781e-01	-2.355847e+16	2.355879e-02	
4.959185e+00	6.586780e+00	9.880348e-01	-1.274991e-02	-3.600758e-02	2.459527e+00	9.835154e-01	9.954258e-01	-2.354944e+16	3.274935e-02	
8.082228e+00	8.212166e+00	9.880981e-01	-9.128342e-03	-2.523978e-02	2.459006e+00	9.834564e-01	9.953024e-01	-2.363369e+16	2.301109e-02	
4.907844e+00	6.316561e+00	9.878901e-01	-1.116697e-02	-3.595520e-02	2.459643e+00	9.835701e-01	9.956271e-01	-2.347123e+16	3.228027e-02	
9.088317e+00	8.572050e+00	9.881770e-01	-8.834148e-03	-2.241143e-02	2.459060e+00	9.835067e-01	9.952738e-01	-2.356190e+16	2.065198e-02	
4.902852e+00	9.913806e+00	9.882653e-01	-5.820402e-03	-2.401247e-02	2.459313e+00	9.836018e-01	9.952812e-01	-2.342593e+16	2.117989e-02	
5.589407e+00	9.654538e+00	9.882830e-01	-6.800225e-03	-2.437174e-02	2.459369e+00	9.836181e-01	9.952798e-01	-2.340275e+16	2.168944e-02	
4.798748e+00	9.586643e+00	9.882549e-01	-6.358728e-03	-2.512400e-02	2.459303e+00	9.835852e-01	9.952749e-01	-2.344968e+16	2.221604e-02	
6.170764e+00	9.427206e+00	9.882885e-01	-7.684208e-03	-2.463352e-02	2.459392e+00	9.836219e-01	9.952781e-01	-2.339729e+16	2.211926e-02	
4.684037e+00	8.849612e+00	9.882409e-01	-7.848928e-03	-2.793384e-02	2.459320e+00	9.835577e-01	9.952610e-01	-2.348905e+16	2.487346e-02	
4.745927e+00	9.230968e+00	9.882474e-01	-7.045783e-03	-2.640923e-02	2.459307e+00	9.835714e-01	9.952684e-01	-2.346942e+16	2.343078e-02	
6.749415e+00	9.219722e+00	9.882768e-01	-8.443897e-03	-2.467139e-02	2.459357e+00	9.836053e-01	9.952731e-01	-2.342103e+16	2.235287e-02	
6.411192e+00	7.323608e+00	9.880251e-01	-9.767129e-03	-3.034183e-02	2.459237e+00	9.834890e-01	9.954089e-01	-2.358712e+16	2.732871e-02	
4.750841e+00	8.494295e+00	9.882344e-01	-8.812014e-03	-2.938580e-02	2.459335e+00	9.835437e-01	9.952535e-01	-2.350899e+16	2.629933e-02	
4.772316e+00	8.183480e+00	9.882275e-01	-9.726730e-03	-3.078665e-02	2.459355e+00	9.835310e-01	9.952476e-01	-2.352712e+16	2.767810e-02	
5.773980e+00	6.821087e+00	9.879677e-01	-9.515882e-03	-3.256665e-02	2.459589e+00	9.836025e-01	9.955817e-01	-2.342500e+16	2.908832e-02	
4.745501e+00	7.589630e+00	9.882126e-01	-1.173231e-02	-3.372368e-02	2.459432e+00	9.835147e-01	9.952461e-01	-2.355041e+16	3.061006e-02	
4.769835e+00	7.883530e+00	9.882207e-01	-1.070505e-02	-3.223814e-02	2.459386e+00	9.835210e-01	9.952443e-01	-2.354141e+16	2.912061e-02	
7.128169e+00	7.666113e+00	9.880720e-01	-9.254142e-03	-2.822228e-02	2.459227e+00	9.835121e-01	9.953851e-01	-2.355409e+16	2.546359e-02	
7.336906e+00	9.012507e+00	9.882518e-01	-8.948845e-03	-2.447266e-02	2.459283e+00	9.835757e-01	9.952683e-01	-2.346331e+16	2.233731e-02	
4.648396e+00	6.760772e+00	9.881271e-01	-1.423833e-02	-3.721784e-02	2.459484e+00	9.834724e-01	9.952893e-01	-2.361092e+16	3.416330e-02	
5.242431e+00	6.376543e+00	9.878187e-01	-8.984231e-03	-3.414864e-02	2.459649e+00	9.836071e-01	9.957364e-01	-2.341846e+16	3.027561e-02	
4.668584e+00	7.041778e+00	9.881719e-01	-1.363064e-02	-3.632345e-02	2.459493e+00	9.834924e-01	9.952645e-01	-2.358223e+16	3.326056e-02	
4.701376e+00	7.310889e+00	9.881906e-01	-1.272283e-02	-3.513236e-02	2.459448e+00	9.834968e-01	9.952501e-01	-2.357605e+16	3.203286e-02	
7.944255e+00	8.813470e+00	9.882296e-01	-9.135746e-03	-2.401817e-02	2.459224e+00	9.835559e-01	9.952706e-01	-2.349160e+16	2.202873e-02	
7.915424e+00	7.806847e+00	9.879663e-01	-8.516381e-03	-2.644367e-02	2.458860e+00	9.833877e-01	9.953656e-01	-2.373189e+16	2.382067e-02	
4.623157e+00	6.170564e+00	9.878134e-01	-1.187426e-02	-3.745666e-02	2.459490e+00	9.834835e-01	9.956167e-01	-2.359498e+16	3.369291e-02	
4.621645e+00	6.470770e+00	9.881140e-01	-1.417187e-02	-3.779610e-02	2.459748e+00	9.835693e-01	9.954007e-01	-2.347237e+16	3.460526e-02	
8.558915e+00	8.661173e+00	9.882204e-01	-9.040429e-03	-2.327684e-02	2.459206e+00	9.835561e-01	9.952801e-01	-2.349132e+16	2.140631e-02	
8.783840e+00	8.167942e+00	9.880770e-01	-8.618351e-03	-2.399160e-02	2.458957e+00	9.834511e-01	9.953183e-01	-2.364128e+16	2.185639e-02	
9.414143e+00	8.228933e+00	9.880606e-01	-8.404535e-03	-2.243531e-02	2.458840e+00	9.834199e-01	9.953032e-01	-2.368589e+16	2.054106e-02	
4.601514e+00	5.862889e+00	9.873428e-01	-4.553416e-03	-3.587686e-02	2.459656e+00	9.835973e-01	9.962065e-01	-2.343242e+16	3.101542e-02	
9.962047e+00	8.322122e+00	9.881778e-01	-8.211579e-03	-2.069720e-02	2.459144e+00	9.835574e-01	9.953243e-01	-2.348937e+16	1.908858e-02	
4.680499e+00	1.082684e+01	9.882698e-01	-4.283407e-03	-2.165308e-02	2.459286e+00	9.836158e-01	9.952908e-01	-2.340604e+16	1.892085e-02	
4.684320e+00	1.051962e+01	9.882654e-01	-4.713310e-03	-2.242923e-02	2.459286e+00	9.836081e-01	9.952874e-01	-2.341700e+16	1.964653e-02	
5.083187e+00	1.027515e+01	9.882798e-01	-5.310394e-03	-2.285713e-02	2.459337e+00	9.836234e-01	9.952883e-01	-2.339518e+16	2.011495e-02	
5.585516e+00	1.012175e+01	9.882928e-01	-5.860197e-03	-2.297981e-02	2.459373e+00	9.836354e-01	9.952874e-01	-2.337801e+16	2.032844e-02	
4.494232e+00	9.838530e+00	9.882465e-01	-5.670391e-03	-2.451514e-02	2.459267e+00	9.835787e-01	9.952767e-01	-2.345897e+16	2.157002e-02	
4.618633e+00	1.017278e+01	9.882579e-01	-5.202021e-03	-2.342467e-02	2.459281e+00	9.835961e-01	9.952827e-01	-2.343420e+16	2.056929e-02	
6.085187e+00	9.924110e+00	9.883062e-01	-6.533117e-03	-2.319808e-02	2.459414e+00	9.836479e-01	9.952866e-01	-2.336012e+16	2.065836e-02	
4.345002e+00	9.101565e+00	9.882339e-01	-6.960605e-03	-2.720889e-02	2.459286e+00	9.835547e-01	9.952650e-01	-2.349335e+16	2.407593e-02	
4.302961e+00	9.477527e+00	9.882361e-01	-6.173499e-03	-2.585490e-02	2.459265e+00	9.835628e-01	9.952711e-01	-2.348171e+16	2.278703e-02	
6.639639e+00	9.729591e+00	9.883134e-01	-7.246114e-03	-2.329002e-02	2.459432e+00	9.836523e-01	9.952838e-01	-2.335380e+16	2.090746e-02	
4.377008e+00	8.619780e+00	9.882270e-01	-8.090494e-03	-2.917308e-02	2.459305e+00	9.835366e-01	9.952538e-01	-2.351908e+16	2.595281e-02	
4.295722e+00	8.852550e+00	9.882245e-01	-7.454609e-03	-2.825088e-02	2.459277e+00	9.835381e-01	9.952577e-01	-2.351705e+16	2.504730e-02	
4.414012e+00	8.334681e+00	9.882233e-01	-8.883009e-03	-3.044210e-02	2.459325e+00	9.835265e-01	9.952472e-01	-2.353359e+16	2.718531e-02	
6.322000e+00	6.937955e+00	9.879375e-01	-7.729089e-03	-3.078832e-02	2.459633e+00	9.836492e-01	9.956593e-01	-2.335828e+16	2.721498e-02	
6.918565e+00	7.204298e+00	9.879083e-01	-7.592362e-03	-2.927247e-02	2.459250e+00	9.835147e-01	9.955526e-01	-2.355048e+16	2.592890e-02	
7.215107e+00	9.540568e+00	9.883104e-01	-7.889321e-03	-2.320333e-02	2.459414e+00	9.836439e-01	9.952783e-01	-2.336592e+16	2.100758e-02	
4.423919e+00	8.047760e+00	9.882199e-01	-9.770974e-03	-3.184237e-02	2.459353e+00	9.835169e-01	9.952409e-01	-2.354733e+16	2.855380e-02	
5.602123e+00	6.495807e+00	9.876072e-01	-7.462700e-03	-3.270611e-02	2.459061e+00	9.833965e-01	9.957365e-01	-2.371926e+16	2.876931e-02	
4.390303e+00	7.483678e+00	9.882026e-01	-1.191299e-02	-3.488966e-02	2.459414e+00	9.834906e-01	9.952317e-01	-2.358481e+16	3.160609e-02	
4.414513e+00	7.763427e+00	9.882141e-01	-1.078124e-02	-3.334136e-02	2.459385e+00	9.835056e-01	9.952353e-01	-2.356339e+16	3.004002e-02	
7.642266e+00	7.443002e+00	9.878756e-01	-7.307705e-03	-2.763281e-02	2.458988e+00	9.834297e-01	9.954995e-01	-2.367191e+16	2.450854e-02	
7.806636e+00	9.357963e+00	9.883037e-01	-8.349873e-03	-2.289100e-02	2.459381e+00	9.836324e-01	9.952735e-01	-2.338224e+16	2.088645e-02	
4.360121e+00	7.208112e+00	9.881884e-01	-1.316205e-02	-3.640602e-02	2.459450e+00	9.834767e-01	9.952321e-01	-2.360465e+16	3.318810e-02	
4.331503e+00	6.930352e+00	9.881794e-01	-1.441878e-02	-3.781963e-02	2.459527e+00	9.834792e-01	9.952436e-01	-2.360109e+16	3.469943e-02	
5.078085e+00	5.988692e+00	9.872077e-01	-1.867792e-03	-3.258466e-02	2.459287e+00	9.834992e-01	9.962434e-01	-2.357263e+16	2.799434e-02	
4.302964e+00	6.644980e+00	9.881362e-01	-1.538546e-02	-3.900547e-02	2.459508e+00	9.834475e-01	9.952550e-01	-2.364644e+16	3.594832e-02	
8.409211e+00	9.189321e+00	9.883060e-01	-8.575287e-03	-2.234310e-02	2.459380e+00	9.836359e-01	9.952746e-01	-2.337728e+16	2.051424e-02	
8.371904e+00	7.641266e+00	9.878719e-01	-7.214913e-03	-2.597558e-02	2.458821e+00	9.833812e-01	9.954541e-01	-2.374115e+16	2.311681e-02	
9.009152e+00	9.029138e+00	9.883043e-01	-8.604841e-03	-2.161623e-02	2.459370e+00	9.836383e-01	9.952787e-01	-2.337392e+16	1.994315e-02	
9.144115e+00	7.709747e+00	9.877809e-01	-6.819884e-03	-2.430418e-02	2.458472e+00	9.832600e-01	9.954231e-01	-2.391434e+16	2.164765e-02	
4.275433e+00	6.350333e+00	9.881200e-01	-1.548579e-02	-3.989710e-02	2.459761e+00	9.835336e-01	9.953584e-01	-2.352349e+16	3.669024e-02	
4.244056e+00	6.044431e+00	9.879263e-01	-1.331567e-02	-4.016950e-02	2.459918e+00	9.836045e-01	9.956254e-01	-2.342210e+16	3.628261e-02	
4.600054e+00	5.544281e+00	9.862859e-01	1.751012e-02	-3.136609e-02	2.461190e+00	9.842143e-01	9.978995e-01	-2.255103e+16	3.081470e-02	
4.203842e+00	5.719512e+00	9.873236e-01	-4.253920e-03	-3.911555e-02	2.460336e+00	9.838207e-01	9.964522e-01	-2.311325e+16	3.374045e-02	
9.635797e+00	8.790948e+00	9.882973e-01	-8.493497e-03	-2.074462e-02	2.459353e+00	9.836396e-01	9.952871e-01	-2.337201e+16	1.921467e-02	
9.825991e+00	7.828741e+00	9.878171e-01	-6.982220e-03	-2.213778e-02	2.458435e+00	9.832650e-01	9.953918e-01	-2.390714e+16	1.990625e-02	
1.034765e+01	8.711369e+00	9.884074e-01	-7.899169e-03	-1.898846e-02	2.459679e+00	9.837859e-01	9.953244e-01	-2.316295e+16	1.762652e-02	
4.153871e+00	5.336495e+00	9.847040e-01	3.029426e-02	-3.175779e-02	2.459384e+00	9.833624e-01	9.986375e-01	-2.376804e+16	3.769539e-02	
1.054226e+01	8.068340e+00	9.881768e-01	-7.097667e-03	-1.899388e-02	2.459294e+00	9.836345e-01	9.954034e-01	-2.337925e+16	1.738197e-02	
1.101794e+01	8.632090e+00	9.885308e-01	-6.809837e-03	-1.717857e-02	2.460032e+00	9.839436e-01	9.953596e-01	-2.293768e+16	1.583568e-02	
3.855121e+00	5.054364e+00	9.810612e-01	7.530555e-02	-2.114458e-02	2.455914e+00	9.811184e-01	1.000058e+00	-2.697374e+16	6.738026e-02	
1.132981e+01	8.090407e+00	9.884531e-01	-5.499622e-03	-1.608129e-02	2.460040e+00	9.839577e-01	9.954520e-01	-2.291762e+16	1.456494e-02	
1.167050e+01	8.616495e+00	9.886746e-01	-5.090975e-03	-1.583091e-02	2.460419e+00	9.841119e-01	9.953850e-01	-2.269736e+16	1.424829e-02	
3.786067e+00	4.732810e+00	9.804382e-01	3.255325e-01	3.493058e-02	2.507868e+00	9.812813e-01	1.000860e+00	-2.674096e+16	2.821041e-01	
1.590853e+01	8.319430e+00	9.892737e-01	-8.565948e-03	-4.713799e-02	2.463051e+00	9.847565e-01	9.954338e-01	-2.177649e+16	4.102412e-02	
1.539987e+01	8.296673e+00	9.892134e-01	-5.175105e-03	-4.315672e-02	2.462647e+00	9.846769e-01	9.954140e-01	-2.189020e+16	3.722141e-02	